[Molden Format]
made by pyscf v[2.11.0]
[Atoms] (AU)
C   1   6     5.47363329377744     0.02754275826554     0.00000000000000
C   2   6    -6.85126631529887    -2.34691701451171     0.00000000000000
C   3   6     2.71673452736297     0.01731745020551     0.00000000000000
C   4   6    -5.47213663068679    -0.02817959596951     0.00000000000000
C   5   6     1.37814135784893    -2.36189687350114     0.00000000000000
C   6   6    -1.37525763578285    -2.38411438354765     0.00000000000000
C   7   6    -2.71545518277664    -0.01865915575396     0.00000000000000
C   8   6     6.85342060308087     2.34830596321327     0.00000000000000
C   9   6     1.37667115092402     2.38258748483900     0.00000000000000
C   10   6    -9.62328855988824    -2.32065927001088     0.00000000000000
C   11   6    -1.37594360636606     2.36039076177986     0.00000000000000
C   12   6    -9.55752231130112     2.34616490351413     0.00000000000000
C   13   6    -5.48380757923210    -4.68010705845458     0.00000000000000
C   14   6     6.80532140403232    -2.31712359243182     0.00000000000000
C   15   6     2.81006243147686    -4.66903893254300     0.00000000000000
C   16   6     5.48319341824162     4.68218953664385     0.00000000000000
C   17   6     9.62360036469879     2.32528154011156     0.00000000000000
C   18   6    -2.82135732452339    -4.69617350996563     0.00000000000000
C   19   6     9.55480866458625    -2.34735165152036     0.00000000000000
C   20   6     2.82147826699536     4.69678578122999     0.00000000000000
C   21   6    -6.80623036229823     2.31679855953839     0.00000000000000
C   22   6     5.46723090166742    -4.64874894314355     0.00000000000000
C   23   6    -2.80738468955835     4.66746857013349     0.00000000000000
C   24   6    -5.46742365373212     4.64630174781224     0.00000000000000
O   25   8   -10.83251485836679     0.04933885938627     0.00000000000000
O   26   8    10.83595415991350    -0.04834108399250     0.00000000000000
O   27   8   -10.89906912274785     4.27076592370804     0.00000000000000
O   28   8   -11.06784623211113    -4.15258812105612     0.00000000000000
O   29   8    10.89761403363194    -4.27144244566064     0.00000000000000
O   30   8    11.06086369408087     4.15400163619729     0.00000000000000
H   31   1     1.82731413984905    -6.50052180822284     0.00000000000000
H   32   1    -6.54965279773541    -6.47293369653032     0.00000000000000
H   33   1    -1.83244096682500    -6.52843306308267     0.00000000000000
H   34   1     1.83127122635389     6.52801354388302     0.00000000000000
H   35   1     6.54794259559268     6.47548860625073     0.00000000000000
H   36   1     6.57841253962517    -6.42064497466360     0.00000000000000
H   37   1    -1.82707225490511     6.50017220888980     0.00000000000000
H   38   1    -6.57799491015164     6.41895933896049     0.00000000000000
[GTO]
1 0
 s    6 1.00
             3047.5249  0.0018347001629433
             457.36951    0.01403730124668
             103.94869   0.068842606114048
             29.210155    0.23218442062076
              9.286663    0.46794134155879
              3.163927    0.36231203217765
 s    3 1.00
             7.8682724   -0.11933240861517
             1.8812885   -0.16085421161283
             0.5442493     1.1434564825515
 s    1 1.00
             0.1687144                   1
 p    3 1.00
             7.8682724   0.068999095584993
             1.8812885    0.31642397975315
             0.5442493    0.74430825237435
 p    1 1.00
             0.1687144                   1

2 0
 s    6 1.00
             3047.5249  0.0018347001629433
             457.36951    0.01403730124668
             103.94869   0.068842606114048
             29.210155    0.23218442062076
              9.286663    0.46794134155879
              3.163927    0.36231203217765
 s    3 1.00
             7.8682724   -0.11933240861517
             1.8812885   -0.16085421161283
             0.5442493     1.1434564825515
 s    1 1.00
             0.1687144                   1
 p    3 1.00
             7.8682724   0.068999095584993
             1.8812885    0.31642397975315
             0.5442493    0.74430825237435
 p    1 1.00
             0.1687144                   1

3 0
 s    6 1.00
             3047.5249  0.0018347001629433
             457.36951    0.01403730124668
             103.94869   0.068842606114048
             29.210155    0.23218442062076
              9.286663    0.46794134155879
              3.163927    0.36231203217765
 s    3 1.00
             7.8682724   -0.11933240861517
             1.8812885   -0.16085421161283
             0.5442493     1.1434564825515
 s    1 1.00
             0.1687144                   1
 p    3 1.00
             7.8682724   0.068999095584993
             1.8812885    0.31642397975315
             0.5442493    0.74430825237435
 p    1 1.00
             0.1687144                   1

4 0
 s    6 1.00
             3047.5249  0.0018347001629433
             457.36951    0.01403730124668
             103.94869   0.068842606114048
             29.210155    0.23218442062076
              9.286663    0.46794134155879
              3.163927    0.36231203217765
 s    3 1.00
             7.8682724   -0.11933240861517
             1.8812885   -0.16085421161283
             0.5442493     1.1434564825515
 s    1 1.00
             0.1687144                   1
 p    3 1.00
             7.8682724   0.068999095584993
             1.8812885    0.31642397975315
             0.5442493    0.74430825237435
 p    1 1.00
             0.1687144                   1

5 0
 s    6 1.00
             3047.5249  0.0018347001629433
             457.36951    0.01403730124668
             103.94869   0.068842606114048
             29.210155    0.23218442062076
              9.286663    0.46794134155879
              3.163927    0.36231203217765
 s    3 1.00
             7.8682724   -0.11933240861517
             1.8812885   -0.16085421161283
             0.5442493     1.1434564825515
 s    1 1.00
             0.1687144                   1
 p    3 1.00
             7.8682724   0.068999095584993
             1.8812885    0.31642397975315
             0.5442493    0.74430825237435
 p    1 1.00
             0.1687144                   1

6 0
 s    6 1.00
             3047.5249  0.0018347001629433
             457.36951    0.01403730124668
             103.94869   0.068842606114048
             29.210155    0.23218442062076
              9.286663    0.46794134155879
              3.163927    0.36231203217765
 s    3 1.00
             7.8682724   -0.11933240861517
             1.8812885   -0.16085421161283
             0.5442493     1.1434564825515
 s    1 1.00
             0.1687144                   1
 p    3 1.00
             7.8682724   0.068999095584993
             1.8812885    0.31642397975315
             0.5442493    0.74430825237435
 p    1 1.00
             0.1687144                   1

7 0
 s    6 1.00
             3047.5249  0.0018347001629433
             457.36951    0.01403730124668
             103.94869   0.068842606114048
             29.210155    0.23218442062076
              9.286663    0.46794134155879
              3.163927    0.36231203217765
 s    3 1.00
             7.8682724   -0.11933240861517
             1.8812885   -0.16085421161283
             0.5442493     1.1434564825515
 s    1 1.00
             0.1687144                   1
 p    3 1.00
             7.8682724   0.068999095584993
             1.8812885    0.31642397975315
             0.5442493    0.74430825237435
 p    1 1.00
             0.1687144                   1

8 0
 s    6 1.00
             3047.5249  0.0018347001629433
             457.36951    0.01403730124668
             103.94869   0.068842606114048
             29.210155    0.23218442062076
              9.286663    0.46794134155879
              3.163927    0.36231203217765
 s    3 1.00
             7.8682724   -0.11933240861517
             1.8812885   -0.16085421161283
             0.5442493     1.1434564825515
 s    1 1.00
             0.1687144                   1
 p    3 1.00
             7.8682724   0.068999095584993
             1.8812885    0.31642397975315
             0.5442493    0.74430825237435
 p    1 1.00
             0.1687144                   1

9 0
 s    6 1.00
             3047.5249  0.0018347001629433
             457.36951    0.01403730124668
             103.94869   0.068842606114048
             29.210155    0.23218442062076
              9.286663    0.46794134155879
              3.163927    0.36231203217765
 s    3 1.00
             7.8682724   -0.11933240861517
             1.8812885   -0.16085421161283
             0.5442493     1.1434564825515
 s    1 1.00
             0.1687144                   1
 p    3 1.00
             7.8682724   0.068999095584993
             1.8812885    0.31642397975315
             0.5442493    0.74430825237435
 p    1 1.00
             0.1687144                   1

10 0
 s    6 1.00
             3047.5249  0.0018347001629433
             457.36951    0.01403730124668
             103.94869   0.068842606114048
             29.210155    0.23218442062076
              9.286663    0.46794134155879
              3.163927    0.36231203217765
 s    3 1.00
             7.8682724   -0.11933240861517
             1.8812885   -0.16085421161283
             0.5442493     1.1434564825515
 s    1 1.00
             0.1687144                   1
 p    3 1.00
             7.8682724   0.068999095584993
             1.8812885    0.31642397975315
             0.5442493    0.74430825237435
 p    1 1.00
             0.1687144                   1

11 0
 s    6 1.00
             3047.5249  0.0018347001629433
             457.36951    0.01403730124668
             103.94869   0.068842606114048
             29.210155    0.23218442062076
              9.286663    0.46794134155879
              3.163927    0.36231203217765
 s    3 1.00
             7.8682724   -0.11933240861517
             1.8812885   -0.16085421161283
             0.5442493     1.1434564825515
 s    1 1.00
             0.1687144                   1
 p    3 1.00
             7.8682724   0.068999095584993
             1.8812885    0.31642397975315
             0.5442493    0.74430825237435
 p    1 1.00
             0.1687144                   1

12 0
 s    6 1.00
             3047.5249  0.0018347001629433
             457.36951    0.01403730124668
             103.94869   0.068842606114048
             29.210155    0.23218442062076
              9.286663    0.46794134155879
              3.163927    0.36231203217765
 s    3 1.00
             7.8682724   -0.11933240861517
             1.8812885   -0.16085421161283
             0.5442493     1.1434564825515
 s    1 1.00
             0.1687144                   1
 p    3 1.00
             7.8682724   0.068999095584993
             1.8812885    0.31642397975315
             0.5442493    0.74430825237435
 p    1 1.00
             0.1687144                   1

13 0
 s    6 1.00
             3047.5249  0.0018347001629433
             457.36951    0.01403730124668
             103.94869   0.068842606114048
             29.210155    0.23218442062076
              9.286663    0.46794134155879
              3.163927    0.36231203217765
 s    3 1.00
             7.8682724   -0.11933240861517
             1.8812885   -0.16085421161283
             0.5442493     1.1434564825515
 s    1 1.00
             0.1687144                   1
 p    3 1.00
             7.8682724   0.068999095584993
             1.8812885    0.31642397975315
             0.5442493    0.74430825237435
 p    1 1.00
             0.1687144                   1

14 0
 s    6 1.00
             3047.5249  0.0018347001629433
             457.36951    0.01403730124668
             103.94869   0.068842606114048
             29.210155    0.23218442062076
              9.286663    0.46794134155879
              3.163927    0.36231203217765
 s    3 1.00
             7.8682724   -0.11933240861517
             1.8812885   -0.16085421161283
             0.5442493     1.1434564825515
 s    1 1.00
             0.1687144                   1
 p    3 1.00
             7.8682724   0.068999095584993
             1.8812885    0.31642397975315
             0.5442493    0.74430825237435
 p    1 1.00
             0.1687144                   1

15 0
 s    6 1.00
             3047.5249  0.0018347001629433
             457.36951    0.01403730124668
             103.94869   0.068842606114048
             29.210155    0.23218442062076
              9.286663    0.46794134155879
              3.163927    0.36231203217765
 s    3 1.00
             7.8682724   -0.11933240861517
             1.8812885   -0.16085421161283
             0.5442493     1.1434564825515
 s    1 1.00
             0.1687144                   1
 p    3 1.00
             7.8682724   0.068999095584993
             1.8812885    0.31642397975315
             0.5442493    0.74430825237435
 p    1 1.00
             0.1687144                   1

16 0
 s    6 1.00
             3047.5249  0.0018347001629433
             457.36951    0.01403730124668
             103.94869   0.068842606114048
             29.210155    0.23218442062076
              9.286663    0.46794134155879
              3.163927    0.36231203217765
 s    3 1.00
             7.8682724   -0.11933240861517
             1.8812885   -0.16085421161283
             0.5442493     1.1434564825515
 s    1 1.00
             0.1687144                   1
 p    3 1.00
             7.8682724   0.068999095584993
             1.8812885    0.31642397975315
             0.5442493    0.74430825237435
 p    1 1.00
             0.1687144                   1

17 0
 s    6 1.00
             3047.5249  0.0018347001629433
             457.36951    0.01403730124668
             103.94869   0.068842606114048
             29.210155    0.23218442062076
              9.286663    0.46794134155879
              3.163927    0.36231203217765
 s    3 1.00
             7.8682724   -0.11933240861517
             1.8812885   -0.16085421161283
             0.5442493     1.1434564825515
 s    1 1.00
             0.1687144                   1
 p    3 1.00
             7.8682724   0.068999095584993
             1.8812885    0.31642397975315
             0.5442493    0.74430825237435
 p    1 1.00
             0.1687144                   1

18 0
 s    6 1.00
             3047.5249  0.0018347001629433
             457.36951    0.01403730124668
             103.94869   0.068842606114048
             29.210155    0.23218442062076
              9.286663    0.46794134155879
              3.163927    0.36231203217765
 s    3 1.00
             7.8682724   -0.11933240861517
             1.8812885   -0.16085421161283
             0.5442493     1.1434564825515
 s    1 1.00
             0.1687144                   1
 p    3 1.00
             7.8682724   0.068999095584993
             1.8812885    0.31642397975315
             0.5442493    0.74430825237435
 p    1 1.00
             0.1687144                   1

19 0
 s    6 1.00
             3047.5249  0.0018347001629433
             457.36951    0.01403730124668
             103.94869   0.068842606114048
             29.210155    0.23218442062076
              9.286663    0.46794134155879
              3.163927    0.36231203217765
 s    3 1.00
             7.8682724   -0.11933240861517
             1.8812885   -0.16085421161283
             0.5442493     1.1434564825515
 s    1 1.00
             0.1687144                   1
 p    3 1.00
             7.8682724   0.068999095584993
             1.8812885    0.31642397975315
             0.5442493    0.74430825237435
 p    1 1.00
             0.1687144                   1

20 0
 s    6 1.00
             3047.5249  0.0018347001629433
             457.36951    0.01403730124668
             103.94869   0.068842606114048
             29.210155    0.23218442062076
              9.286663    0.46794134155879
              3.163927    0.36231203217765
 s    3 1.00
             7.8682724   -0.11933240861517
             1.8812885   -0.16085421161283
             0.5442493     1.1434564825515
 s    1 1.00
             0.1687144                   1
 p    3 1.00
             7.8682724   0.068999095584993
             1.8812885    0.31642397975315
             0.5442493    0.74430825237435
 p    1 1.00
             0.1687144                   1

21 0
 s    6 1.00
             3047.5249  0.0018347001629433
             457.36951    0.01403730124668
             103.94869   0.068842606114048
             29.210155    0.23218442062076
              9.286663    0.46794134155879
              3.163927    0.36231203217765
 s    3 1.00
             7.8682724   -0.11933240861517
             1.8812885   -0.16085421161283
             0.5442493     1.1434564825515
 s    1 1.00
             0.1687144                   1
 p    3 1.00
             7.8682724   0.068999095584993
             1.8812885    0.31642397975315
             0.5442493    0.74430825237435
 p    1 1.00
             0.1687144                   1

22 0
 s    6 1.00
             3047.5249  0.0018347001629433
             457.36951    0.01403730124668
             103.94869   0.068842606114048
             29.210155    0.23218442062076
              9.286663    0.46794134155879
              3.163927    0.36231203217765
 s    3 1.00
             7.8682724   -0.11933240861517
             1.8812885   -0.16085421161283
             0.5442493     1.1434564825515
 s    1 1.00
             0.1687144                   1
 p    3 1.00
             7.8682724   0.068999095584993
             1.8812885    0.31642397975315
             0.5442493    0.74430825237435
 p    1 1.00
             0.1687144                   1

23 0
 s    6 1.00
             3047.5249  0.0018347001629433
             457.36951    0.01403730124668
             103.94869   0.068842606114048
             29.210155    0.23218442062076
              9.286663    0.46794134155879
              3.163927    0.36231203217765
 s    3 1.00
             7.8682724   -0.11933240861517
             1.8812885   -0.16085421161283
             0.5442493     1.1434564825515
 s    1 1.00
             0.1687144                   1
 p    3 1.00
             7.8682724   0.068999095584993
             1.8812885    0.31642397975315
             0.5442493    0.74430825237435
 p    1 1.00
             0.1687144                   1

24 0
 s    6 1.00
             3047.5249  0.0018347001629433
             457.36951    0.01403730124668
             103.94869   0.068842606114048
             29.210155    0.23218442062076
              9.286663    0.46794134155879
              3.163927    0.36231203217765
 s    3 1.00
             7.8682724   -0.11933240861517
             1.8812885   -0.16085421161283
             0.5442493     1.1434564825515
 s    1 1.00
             0.1687144                   1
 p    3 1.00
             7.8682724   0.068999095584993
             1.8812885    0.31642397975315
             0.5442493    0.74430825237435
 p    1 1.00
             0.1687144                   1

25 0
 s    6 1.00
             5484.6717   0.001831099805527
             825.23495   0.013950098518422
             188.04696    0.06844509273075
               52.9645    0.23271427528445
              16.89757    0.47019295006289
             5.7996353    0.35852086192309
 s    3 1.00
             15.539616   -0.11077750382508
             3.5999336   -0.14802630511126
             1.0137618     1.1307670390447
 s    1 1.00
             0.2700058                   1
 p    3 1.00
             15.539616   0.070874299543311
             3.5999336    0.33975279781076
             1.0137618    0.72715859531445
 p    1 1.00
             0.2700058                   1

26 0
 s    6 1.00
             5484.6717   0.001831099805527
             825.23495   0.013950098518422
             188.04696    0.06844509273075
               52.9645    0.23271427528445
              16.89757    0.47019295006289
             5.7996353    0.35852086192309
 s    3 1.00
             15.539616   -0.11077750382508
             3.5999336   -0.14802630511126
             1.0137618     1.1307670390447
 s    1 1.00
             0.2700058                   1
 p    3 1.00
             15.539616   0.070874299543311
             3.5999336    0.33975279781076
             1.0137618    0.72715859531445
 p    1 1.00
             0.2700058                   1

27 0
 s    6 1.00
             5484.6717   0.001831099805527
             825.23495   0.013950098518422
             188.04696    0.06844509273075
               52.9645    0.23271427528445
              16.89757    0.47019295006289
             5.7996353    0.35852086192309
 s    3 1.00
             15.539616   -0.11077750382508
             3.5999336   -0.14802630511126
             1.0137618     1.1307670390447
 s    1 1.00
             0.2700058                   1
 p    3 1.00
             15.539616   0.070874299543311
             3.5999336    0.33975279781076
             1.0137618    0.72715859531445
 p    1 1.00
             0.2700058                   1

28 0
 s    6 1.00
             5484.6717   0.001831099805527
             825.23495   0.013950098518422
             188.04696    0.06844509273075
               52.9645    0.23271427528445
              16.89757    0.47019295006289
             5.7996353    0.35852086192309
 s    3 1.00
             15.539616   -0.11077750382508
             3.5999336   -0.14802630511126
             1.0137618     1.1307670390447
 s    1 1.00
             0.2700058                   1
 p    3 1.00
             15.539616   0.070874299543311
             3.5999336    0.33975279781076
             1.0137618    0.72715859531445
 p    1 1.00
             0.2700058                   1

29 0
 s    6 1.00
             5484.6717   0.001831099805527
             825.23495   0.013950098518422
             188.04696    0.06844509273075
               52.9645    0.23271427528445
              16.89757    0.47019295006289
             5.7996353    0.35852086192309
 s    3 1.00
             15.539616   -0.11077750382508
             3.5999336   -0.14802630511126
             1.0137618     1.1307670390447
 s    1 1.00
             0.2700058                   1
 p    3 1.00
             15.539616   0.070874299543311
             3.5999336    0.33975279781076
             1.0137618    0.72715859531445
 p    1 1.00
             0.2700058                   1

30 0
 s    6 1.00
             5484.6717   0.001831099805527
             825.23495   0.013950098518422
             188.04696    0.06844509273075
               52.9645    0.23271427528445
              16.89757    0.47019295006289
             5.7996353    0.35852086192309
 s    3 1.00
             15.539616   -0.11077750382508
             3.5999336   -0.14802630511126
             1.0137618     1.1307670390447
 s    1 1.00
             0.2700058                   1
 p    3 1.00
             15.539616   0.070874299543311
             3.5999336    0.33975279781076
             1.0137618    0.72715859531445
 p    1 1.00
             0.2700058                   1

31 0
 s    3 1.00
             18.731137    0.03349459952309
             2.8253937    0.23472694665786
             0.6401217    0.81375731841339
 s    1 1.00
             0.1612778                   1

32 0
 s    3 1.00
             18.731137    0.03349459952309
             2.8253937    0.23472694665786
             0.6401217    0.81375731841339
 s    1 1.00
             0.1612778                   1

33 0
 s    3 1.00
             18.731137    0.03349459952309
             2.8253937    0.23472694665786
             0.6401217    0.81375731841339
 s    1 1.00
             0.1612778                   1

34 0
 s    3 1.00
             18.731137    0.03349459952309
             2.8253937    0.23472694665786
             0.6401217    0.81375731841339
 s    1 1.00
             0.1612778                   1

35 0
 s    3 1.00
             18.731137    0.03349459952309
             2.8253937    0.23472694665786
             0.6401217    0.81375731841339
 s    1 1.00
             0.1612778                   1

36 0
 s    3 1.00
             18.731137    0.03349459952309
             2.8253937    0.23472694665786
             0.6401217    0.81375731841339
 s    1 1.00
             0.1612778                   1

37 0
 s    3 1.00
             18.731137    0.03349459952309
             2.8253937    0.23472694665786
             0.6401217    0.81375731841339
 s    1 1.00
             0.1612778                   1

38 0
 s    3 1.00
             18.731137    0.03349459952309
             2.8253937    0.23472694665786
             0.6401217    0.81375731841339
 s    1 1.00
             0.1612778                   1

[5d]
[7f]
[9g]

[MO]
 Sym= A
 Ene=               0
 Spin= Alpha
 Occup=    1.00000
   1    -0.0009590388462623
   2    0.0015561567480296
   3    0.0094730238680982
   4    0.0039794698503563
   5    -0.038692524739921
   6    2.6866552793152e-11
   7    0.0080591743895033
   8     0.065324267585607
   9    2.5178867347767e-11
  10    -0.016812903222565
  11      0.02804533337828
  12      0.16437975518533
  13    -0.077318483457823
  14    0.0017368217211475
  15    -6.9047192273876e-11
  16     -0.17070208641178
  17    -0.070485619198639
  18    -5.0671410039353e-11
  19    0.00082083317165898
  20    -0.001692567663738
  21    -0.00097304093077092
  22    -0.0034878256621617
  23    0.0034053305353207
  24    -8.0207405872873e-11
  25    -0.0016075926201997
  26    -0.049913825955286
  27    -5.1542568451846e-11
  28    -0.0010663614868495
  29    0.0016950610095512
  30     0.011264145109917
  31    -0.0045484960469822
  32     0.047222411863456
  33    -1.1052752717532e-10
  34    -0.0089457782573737
  35    -0.079105255885271
  36    -5.3421676891507e-11
  37    0.0044811036151894
  38    -0.0095091491331701
  39    -0.019680674503777
  40    -0.0023834199769024
  41    -0.0021284455863294
  42    -1.1774070977663e-10
  43    -0.021709139275819
  44    -0.034403799385953
  45    -5.8828812097859e-11
  46    -0.0045995486383283
  47    0.0097697752469888
  48     0.023764674621174
  49    -0.0065717326246464
  50    0.0054215182792632
  51    -1.8044395765802e-10
  52     -0.02519878460603
  53     0.038419422871458
  54    -9.7812969601996e-11
  55    0.00088676080451438
  56    -0.0018048831134923
  57    -0.0012142214320969
  58    0.0040696828169533
  59    -0.004888366385798
  60    -1.8502440462154e-10
  61    0.0019999028123639
  62     0.057539705096998
  63    -1.0966879724362e-10
  64    -0.013732376407954
  65     0.022975516506277
  66       0.1338825021253
  67     0.063060395626324
  68    -0.0018399259599353
  69    1.1301285268849e-10
  70      0.13932660015342
  71     0.058081894234891
  72    4.6653338004927e-11
  73    -0.0041734893535307
  74    0.0089798813249004
  75     0.017670747199486
  76    0.0032877237983504
  77    -0.0046856211179858
  78    -1.0884584520264e-10
  79     0.021187306625273
  80    -0.035620898195002
  81    -5.5777293256799e-11
  82    0.00081691166447817
  83    0.0095249745197306
  84    -0.086212889889568
  85     0.021487170410956
  86    -0.024309231512528
  87    1.3966726549308e-10
  88     -0.15266312135635
  89      0.09709033013152
  90    8.1219406314994e-11
  91    0.0049450709433822
  92    -0.010359056094476
  93    -0.025900689999297
  94    0.0057884544249106
  95    0.0023493180313104
  96    -1.461220762495e-10
  97     0.025654616893911
  98     0.037071656881394
  99    -7.5117705969825e-11
 100    0.00082533538354019
 101     -0.01415464643591
 102     0.087566031740142
 103    -0.026272340498758
 104    -0.015899069808104
 105    3.0378644916617e-10
 106      0.18144900584583
 107      0.10484517941045
 108    1.6725870365858e-10
 109    -0.0025239672510765
 110    0.0034517374521885
 111     0.035082099923066
 112    -0.00081225336827443
 113     -0.01946625883811
 114    -9.9048722206594e-11
 115     0.068194920739611
 116    -0.028909780365857
 117    -5.6797218159239e-11
 118     0.015486400354835
 119     -0.02515582104158
 120     -0.17157228659396
 121     -0.07620809265056
 122    0.0020988768896471
 123    4.1690025048353e-11
 124     -0.15506751842858
 125     0.056783716193377
 126    1.5410428155192e-11
 127    -0.00087154093438217
 128    0.00061907883754674
 129     0.041231510175578
 130    -0.0057327620053554
 131    -0.0037666629067764
 132    -4.3474334309045e-11
 133     0.032480427570459
 134     -0.01820666924602
 135    -2.2362902664509e-11
 136    -0.0021779715248438
 137    0.0030027733202137
 138     0.030571423862002
 139    -0.0004061265417689
 140     0.015901640492586
 141    1.5195059800038e-11
 142    -0.057345479524935
 143     0.024286811288724
 144    8.340506551444e-12
 145    0.00075456481300346
 146    0.0075587556225271
 147    -0.071579120255107
 148    -0.017952666913445
 149      0.02053770511931
 150    3.2864994889821e-10
 151      0.12385555145507
 152    -0.078201902493196
 153    1.7736761007427e-10
 154    -0.00011012011911803
 155    0.0016454092222056
 156    -0.041710816264609
 157    -0.0072751799600663
 158    0.0048276915884677
 159    -1.2456965637903e-10
 160     0.035051028899355
 161     0.018490924090609
 162    -7.0029087545582e-11
 163    0.00083692372570062
 164    -0.012109971175396
 165      0.07301959641899
 166     0.021558881743342
 167      0.01258880843288
 168    1.2527173916828e-10
 169     -0.14980077806158
 170    -0.085950715597571
 171    6.5476762527863e-11
 172    0.00013637881380278
 173    0.00087731925544145
 174    -0.034523450385718
 175     0.007163550116427
 176    -0.004052317455914
 177    -4.2499212173219e-11
 178    -0.030759583939773
 179    -0.017116571830081
 180    -2.6633991401461e-11
 181     0.018813890810169
 182    -0.030622618436214
 183     -0.20673963748129
 184     0.092466764164345
 185    -0.0026982878299891
 186    3.2467982078342e-11
 187      0.18769841713666
 188    -0.068912728127291
 189    4.2294198547341e-12
 190    0.0038554202188771