[Molden Format]
made by pyscf v[2.11.0]
[Atoms] (AU)
O   1   8     0.00000000000000     0.00000000000000     0.22166487441148
H   2   1     0.00000000000000     1.43090062152066    -0.88665949764593
H   3   1     0.00000000000000    -1.43090062152066    -0.88665949764593
[GTO]
1 0
 s    6 1.00
             5484.6717   0.001831099805527
             825.23495   0.013950098518422
             188.04696    0.06844509273075
               52.9645    0.23271427528445
              16.89757    0.47019295006289
             5.7996353    0.35852086192309
 s    3 1.00
             15.539616   -0.11077750382508
             3.5999336   -0.14802630511126
             1.0137618     1.1307670390447
 s    1 1.00
             0.2700058                   1
 p    3 1.00
             15.539616   0.070874299543311
             3.5999336    0.33975279781076
             1.0137618    0.72715859531445
 p    1 1.00
             0.2700058                   1

2 0
 s    3 1.00
             18.731137    0.03349459952309
             2.8253937    0.23472694665786
             0.6401217    0.81375731841339
 s    1 1.00
             0.1612778                   1

3 0
 s    3 1.00
             18.731137    0.03349459952309
             2.8253937    0.23472694665786
             0.6401217    0.81375731841339
 s    1 1.00
             0.1612778                   1

[5d]
[7f]
[9g]

[MO]
 Sym= A
 Ene=               0
 Spin= Alpha
 Occup=    1.00000
   1    1.719763068091e-15
   2    -5.809382420395e-15
   3    -8.7222430156097e-15
   4      0.64622425938488
   5    -4.4690972155911e-15
   6    -8.5324898456858e-15
   7      0.50502017458197
   8    -2.2968018808717e-15
   9     -6.1787539644e-15
  10    -4.5610289584536e-16
  11    5.5043436118505e-16
  12    3.802263471221e-15
  13    3.1041586172244e-15
 Sym= A
 Ene=               1
 Spin= Alpha
 Occup=    1.00000
   1    1.577537316049e-13
   2    -4.4620239241863e-13
   3    -3.542940427904e-13
   4    5.6809435692001e-15
   5      0.51677809053634
   6    4.1053395749195e-13
   7    4.4027135117359e-15
   8       0.2336558381301
   9    2.4664427893182e-13
  10       0.2676398243702
  11      0.14942005304007
  12     -0.26763982437067
  13     -0.14942005304016
 Sym= A
 Ene=               2
 Spin= Alpha
 Occup=    1.00000
   1      0.12695075062968
   2     -0.27681560320016
   3     -0.44431334116907
   4    -1.1522279745836e-14
   5    1.2282603334548e-13
   6     -0.51148832617122
   7    -9.010347357481e-15
   8    5.5774028109913e-14
   9     -0.35915590295558
  10      0.11416173487094
  11      0.10196271864944
  12      0.11416173487081
  13      0.10196271864938
 Sym= A
 Ene=               3
 Spin= Alpha
 Occup=    1.00000
   1      0.19179700164628
   2     -0.42285962650853
   3     -0.37779692113704
   4    -1.5283146346946e-15
   5    -6.2329413272901e-13
   6      0.24317707667201
   7    -1.1983640269095e-15
   8    -2.819316785611e-13
   9      0.13206380805961
  10     -0.17362340819826
  11    -0.017575078766922
  12     -0.17362340819761
  13    -0.017575078766564
 Sym= A
 Ene=               4
 Spin= Alpha
 Occup=    1.00000
   1         0.99457393115
   2     0.028954540217666
   3    -0.011842855004272
   4    6.0580687363722e-16
   5    2.2817846476478e-14
   6    -0.0012970052627209
   7    4.7326711091987e-16
   8    1.0303029358899e-14
   9    0.0033948113390463
  10    1.3756404265253e-05
  11    0.0028774723386475
  12    1.3756404241665e-05
  13    0.0028774723386342
 Sym= A
 Ene=               5
 Spin= Alpha
 Occup=    0.00000
   1    -4.7969655890152e-15
   2    6.441734147461e-15
   3    6.2684520162529e-14
   4    -1.0455669781263e-14
   5     -0.44810034711851
   6    -4.0150470478095e-14
   7    1.140007386078e-14
   8     -0.72121463779139
   9    -7.3085408708326e-15
  10      0.11404282406421
  11       1.2529181079681
  12     -0.11404282406423
  13      -1.2529181079681
 Sym= A
 Ene=               6
 Spin= Alpha
 Occup=    0.00000
   1    -9.0452308142004e-14
   2    9.1947343247728e-13
   3    -1.900244394049e-12
   4      0.95835302559279
   5    -3.0642627303416e-12
   6    -9.8557625964027e-13
   7      -1.0397119496984
   8    1.1388499071212e-12
   9    3.4723080405213e-13
  10    2.2802658310626e-12
  11    -2.8842182255139e-12
  12    -7.1700109600699e-12
  13    8.047043721758e-12
 Sym= A
 Ene=               7
 Spin= Alpha
 Occup=    0.00000
   1     0.059498151105523
   2      -1.4126587662952
   3       2.2414913946619
   4    1.1150334806365e-13
   5    -0.048747851686121
   6     -0.47058172593491
   7    -1.2103980290634e-13
   8     0.050278855140398
   9     0.073841758843261
  10    -0.065849879157354
  11     -0.71374554290755
  12     -0.14282910063226
  13     -0.57673276175371
 Sym= A
 Ene=               8
 Spin= Alpha
 Occup=    0.00000
   1    -0.028405078646969
   2      0.75555612289271
   3      -1.4730576872765
   4    -1.4272360562106e-12
   5     0.051141194773588
   6     -0.85506888127404
   7    1.5482161006563e-12
   8    -0.014646296700442
   9       1.0571324036788
  10     -0.35988389771741
  11      0.90825471162023
  12     -0.19156016326767
  13      0.71975857032407
 Sym= A
 Ene=               9
 Spin= Alpha
 Occup=    0.00000
   1    0.0050659795505348
   2    -0.087535973090303
   3      0.12519536025547
   4    3.2244198088277e-12
   5      -0.2902721098153
   6     0.052958577146099
   7    -3.4980376965952e-12
   8       1.2506916273118
   9    -0.063563237435332
  10     -0.85743432554355
  11      0.11199629544091
  12      0.87050369696617
  13     -0.18962841419173
 Sym= A
 Ene=              10
 Spin= Alpha
 Occup=    0.00000
   1    -0.079674865881346
   2     -0.20445963300976
   3       1.3397697783823
   4    -1.2251774033901e-12
   5     0.054230453870745
   6     0.092184804415922
   7    1.3292036223995e-12
   8    -0.071930406549195
   9      -1.1481929975168
  10      -1.0482366917657
  11     -0.13464918955881
  12     -0.99936399748215
  13     -0.26828054621193
 Sym= A
 Ene=              11
 Spin= Alpha
 Occup=    0.00000
   1    -0.033529768500017
   2      0.30468374262123
   3     -0.14367622512383
   4    -3.7046917253311e-12
   5     -0.90812674820603
   6     -0.11316961357831
   7    4.0192109886861e-12
   8       1.2020502258235
   9    0.0060092686746509
  10      0.41892562729223
  11      -1.2445151768865
  12     -0.40516883181104
  13      0.99614185189779
 Sym= A
 Ene=              12
 Spin= Alpha
 Occup=    0.00000
   1     0.078870929839226
   2     -0.60155112013666
   3    -0.069179943678866
   4    -2.5188918903816e-12
   5     -0.25744448887352
   6      0.27815620886042
   7    2.7326466486288e-12
   8      0.31481705636109
   9    0.0046216451739753
  10     -0.13567633177814
  11      0.39042737884813
  12     -0.42894153786684
  13        1.056115242393
