[Molden Format]
made by pyscf v[2.11.0]
[Atoms] (AU)
O   1   8     0.00000000000000     0.00000000000000     0.22166487441148
H   2   1     0.00000000000000     1.43090062152066    -0.88665949764593
H   3   1     0.00000000000000    -1.43090062152066    -0.88665949764593
[GTO]
1 0
 s    6 1.00
             5484.6717   0.001831099805527
             825.23495   0.013950098518422
             188.04696    0.06844509273075
               52.9645    0.23271427528445
              16.89757    0.47019295006289
             5.7996353    0.35852086192309
 s    3 1.00
             15.539616   -0.11077750382508
             3.5999336   -0.14802630511126
             1.0137618     1.1307670390447
 s    1 1.00
             0.2700058                   1
 p    3 1.00
             15.539616   0.070874299543311
             3.5999336    0.33975279781076
             1.0137618    0.72715859531445
 p    1 1.00
             0.2700058                   1

2 0
 s    3 1.00
             18.731137    0.03349459952309
             2.8253937    0.23472694665786
             0.6401217    0.81375731841339
 s    1 1.00
             0.1612778                   1

3 0
 s    3 1.00
             18.731137    0.03349459952309
             2.8253937    0.23472694665786
             0.6401217    0.81375731841339
 s    1 1.00
             0.1612778                   1

[5d]
[7f]
[9g]

[MO]
 Sym= A
 Ene=               0
 Spin= Alpha
 Occup=    1.00000
   1    7.0605942168999e-15
   2    -1.6453387912457e-14
   3    -3.0280522941109e-14
   4     -0.64622425938488
   5    2.5560166534507e-15
   6    -4.6607891511698e-14
   7     -0.50502017458196
   8    8.9247367021083e-16
   9    -3.2441452834113e-14
  10    1.3391889231986e-14
  11    9.6141011808902e-15
  12    1.0822227931743e-14
  13    7.0908673197797e-15
 Sym= A
 Ene=               1
 Spin= Alpha
 Occup=    1.00000
   1    -1.9988677827512e-13
   2    4.3097605381429e-13
   3    8.0008140222652e-13
   4    -3.2667219911606e-15
   5     -0.51677809053634
   6    1.1718244479888e-12
   7    -2.5192136000271e-15
   8      -0.2336558381301
   9    8.1180733890034e-13
  10     -0.26763982437074
  11     -0.14942005304033
  12      0.26763982437013
  13      0.14942005303989
 Sym= A
 Ene=               2
 Spin= Alpha
 Occup=    1.00000
   1        0.132676641455
   2     -0.27993377093573
   3     -0.44725294065913
   4    5.3863728673094e-14
   5    -1.1008168335015e-12
   6     -0.50960346072386
   7    4.2105583768637e-14
   8    -5.0370486789085e-13
   9      -0.3581115847875
  10      0.11282180153022
  11        0.101835886905
  12      0.11282180153136
  13      0.10183588690558
 Sym= A
 Ene=               3
 Spin= Alpha
 Occup=    1.00000
   1      0.18882864860068
   2     -0.42077713346959
   3     -0.37434732183715
   4    -1.0952951366936e-14
   5    1.996522051417e-13
   6      0.24710219985944
   7    -8.5390124929646e-15
   8    9.2119347656881e-14
   9      0.13481256190389
  10     -0.17449516457758
  11     -0.01836373870628
  12     -0.17449516457778
  13    -0.018363738706382
 Sym= A
 Ene=               4
 Spin= Alpha
 Occup=    1.00000
   1      0.99439455837659
   2     0.029312030704748
   3    -0.010677156981962
   4    -5.3490966838635e-16
   5    4.3258368560004e-15
   6     0.001377059811539
   7    -4.2121634817912e-16
   8    2.0092663610148e-15
   9    0.0051964184749571
  10    -0.00081756381355107
  11    0.0024050933526199
  12    -0.00081756381355554
  13    0.0024050933526177
 Sym= A
 Ene=               5
 Spin= Alpha
 Occup=    0.00000
   1    1.7304040973283e-15
   2    -3.5493923624921e-15
   3    -3.1452384150851e-14
   4    -6.8316171584929e-15
   5     -0.44810034711851
   6    1.0324919810046e-14
   7    7.758030587482e-15
   8     -0.72121463779138
   9    3.2936783369245e-14
  10      0.11404282406422
  11       1.2529181079681
  12     -0.11404282406422
  13      -1.2529181079681
 Sym= A
 Ene=               6
 Spin= Alpha
 Occup=    0.00000
   1    6.8579646975135e-13
   2    -1.1360694201333e-12
   3    -9.1023516669137e-12
   4      0.95835302559279
   5    -2.3259888028323e-12
   6    1.6264637881262e-12
   7      -1.0397119496984
   8    7.9041891281576e-13
   9    3.9770049394197e-12
  10    3.6027784715005e-12
  11    4.1289757318682e-12
  12    -3.7427764013598e-12
  13    1.2517244955996e-11
 Sym= A
 Ene=               7
 Spin= Alpha
 Occup=    0.00000
   1     0.097069294716128
   2       -1.424967236813
   3       1.6420825508209
   4    -2.2112497643314e-12
   5      0.12802245874878
   6     -0.36760126675362
   7    2.3989181784124e-12
   8     -0.31366070839904
   9      0.31653020346938
  10     0.032323106290933
  11    -0.096501949889662
  12     -0.18291195651571
  13     -0.24298502369801
 Sym= A
 Ene=               8
 Spin= Alpha
 Occup=    0.00000
   1    -0.044479089860453
   2      0.80630957184701
   3      -1.3045967952383
   4    5.1562833987581e-13
   5     -0.05784488425402
   6     -0.90446276463242
   7    -5.5939368133174e-13
   8      0.20710977986809
   9      0.99565923750758
  10     -0.37301755915431
  11      0.62436494225592
  12     -0.12549197670719
  13      0.61374192788329
 Sym= A
 Ene=               9
 Spin= Alpha
 Occup=    0.00000
   1     0.021916990016396
   2     -0.30829323182665
   3       0.3548464627282
   4    -1.8950417435301e-12
   5     -0.93943905764517
   6     0.037705733455843
   7    2.0558354495879e-12
   8       1.6888353359676
   9    -0.038280464436089
  10    -0.081280803842738
  11     -0.94940054279333
  12     0.089700776990673
  13      0.84538500785823
 Sym= A
 Ene=              10
 Spin= Alpha
 Occup=    0.00000
   1    -0.040230802687259
   2     -0.24670225666873
   3      0.76723746760596
   4    -2.5558157570255e-12
   5    -0.053090595991936
   6      0.17318620526287
   7    2.7728692579002e-12
   8     -0.10595872480033
   9     -0.88929307137719
  10     -0.78916059216446
  11      0.12162729207985
  12      -1.2423619450207
  13      0.45963654044366
 Sym= A
 Ene=              11
 Spin= Alpha
 Occup=    0.00000
   1     0.063000615584432
   2      0.20636529783555
   3      -1.4952369438536
   4    -5.3380362405449e-12
   5      0.14695843362231
   6      0.26356235430307
   7    5.7910150869453e-12
   8     0.098082640948161
   9      0.48030850184107
  10      -0.2701756760014
  11       1.3117589362163
  12      0.53565963165526
  13      0.60544500936979
 Sym= A
 Ene=              12
 Spin= Alpha
 Occup=    0.00000
   1    -0.024427626113555
   2     -0.43757508849703
   3       1.2967488261134
   4    5.9216139969757e-12
   5      0.23762481807663
   6    0.0026376070150475
   7    -6.4241342745184e-12
   8      0.31920335670841
   9     -0.57523380918592
  10       -1.148560129629
  11      0.17399470183848
  12      0.52355273501804
  13      -1.1567447269473
