[Molden Format]
made by pyscf v[2.11.0]
[Atoms] (AU)
O   1   8     0.00000000000000     0.00000000000000     0.22166487441148
H   2   1     0.00000000000000     1.43090062152066    -0.88665949764593
H   3   1     0.00000000000000    -1.43090062152066    -0.88665949764593
[GTO]
1 0
 s    6 1.00
             5484.6717   0.001831099805527
             825.23495   0.013950098518422
             188.04696    0.06844509273075
               52.9645    0.23271427528445
              16.89757    0.47019295006289
             5.7996353    0.35852086192309
 s    3 1.00
             15.539616   -0.11077750382508
             3.5999336   -0.14802630511126
             1.0137618     1.1307670390447
 s    1 1.00
             0.2700058                   1
 p    3 1.00
             15.539616   0.070874299543311
             3.5999336    0.33975279781076
             1.0137618    0.72715859531445
 p    1 1.00
             0.2700058                   1

2 0
 s    3 1.00
             18.731137    0.03349459952309
             2.8253937    0.23472694665786
             0.6401217    0.81375731841339
 s    1 1.00
             0.1612778                   1

3 0
 s    3 1.00
             18.731137    0.03349459952309
             2.8253937    0.23472694665786
             0.6401217    0.81375731841339
 s    1 1.00
             0.1612778                   1

[5d]
[7f]
[9g]

[MO]
 Sym= A
 Ene=               0
 Spin= Alpha
 Occup=    1.00000
   1    -7.0561420920902e-15
   2    1.5712259377989e-14
   3    3.0281930338764e-14
   4     -0.64622425938488
   5    6.5603250150766e-15
   6    4.3341165103737e-14
   7     -0.50502017458196
   8    2.7029800432588e-15
   9    2.9568001154068e-14
  10    -8.1697814625075e-15
  11    -6.2356796377991e-15
  12    -1.4887112357327e-14
  13    -1.1074506898621e-14
 Sym= A
 Ene=               1
 Spin= Alpha
 Occup=    1.00000
   1      0.15870282332113
   2     -0.50491331225857
   3     -0.56749542485094
   4    -2.3447158913987e-14
   5    1.2344920399575e-14
   6     -0.11603327745596
   7    -1.8300316390892e-14
   8    3.3868549432161e-15
   9     -0.11248414509626
  10     -0.06879619714534
  11     0.047468751409976
  12    -0.068796197145354
  13     0.047468751409945
 Sym= A
 Ene=               2
 Spin= Alpha
 Occup=    1.00000
   1     0.015733912709172
   2     0.032345370305018
   3     -0.11428571426017
   4    -3.7933833365976e-14
   5      0.21932878123352
   6     -0.50187968968781
   7    -2.966265081592e-14
   8     0.099167226985148
   9     -0.33113376579552
  10      0.29084023067717
  11       0.1466480189978
  12     0.063659096013368
  13     0.019815559474858
 Sym= A
 Ene=               3
 Spin= Alpha
 Occup=    1.00000
   1     0.036607326948353
   2     0.014926465730165
   3    -0.054937694987905
   4    -2.6572485994829e-14
   5     -0.46772897153346
   6      -0.2349015786788
   7    -2.0737304089001e-14
   8     -0.21147878918001
   9     -0.15493519887765
  10     -0.15951503060953
  11    -0.096146598086953
  12      0.32495945500288
  13      0.17432960442538
 Sym= A
 Ene=               4
 Spin= Alpha
 Occup=    1.00000
   1       1.0076237635762
   2    -0.0083085528188313
   3    -0.046418530080271
   4    7.4877334201203e-16
   5     0.013567968501536
   6     0.015211330866866
   7    5.8291335875747e-16
   8    0.0061346158244813
   9      0.01175445327761
  10    -0.0065623051512514
  11    0.0060678930045384
  12    -0.020616030621873
  13    -0.001778130696048
 Sym= A
 Ene=               5
 Spin= Alpha
 Occup=    0.00000
   1     0.088058911461182
   2     -0.16070421889284
   3      -1.0756186277941
   4    -2.8517841300157e-14
   5    1.4722032131779e-14
   6      0.31062383041332
   7    3.0694511244631e-14
   8    2.9868293398887e-14
   9      0.41582154521898
  10     0.096776679158245
  11      0.92821589386074
  12     0.096776679158263
  13      0.92821589386081
 Sym= A
 Ene=               6
 Spin= Alpha
 Occup=    0.00000
   1    -3.3635768677476e-13
   2    6.7282704771709e-12
   3    -8.7793473682244e-12
   4      0.95835302559279
   5    -1.8978998057045e-12
   6    4.6778289610798e-12
   7      -1.0397119496984
   8    -3.1502795589141e-12
   9    -3.0176537816024e-12
  10    3.0954612240587e-12
  11    5.083285771596e-12
  12    1.3603478330184e-12
  13    -4.5319441694743e-12
 Sym= A
 Ene=               7
 Spin= Alpha
 Occup=    0.00000
   1    -0.047535090660699
   2      0.98343457090058
   3      -1.4424294067302
   4    -6.0132015808733e-12
   5     -0.23477835980651
   6      0.13212120176961
   7    6.5239658159357e-12
   8     -0.66104316505317
   9     0.096749783871152
  10     0.076781082916119
  11       1.4957937137947
  12      0.15038337536323
  13     -0.84437707141223
 Sym= A
 Ene=               8
 Spin= Alpha
 Occup=    0.00000
   1     0.038848552896295
   2     -0.84907842972378
   3       1.2598071854126
   4    2.1376354939853e-12
   5      0.39299043280758
   6     -0.13116114247194
   7    -2.3189387865646e-12
   8     -0.38422299891208
   9     -0.09429198237022
  10     -0.83280596493161
  11      0.87679443046978
  12      0.54772705629638
  13      -1.3989987061314
 Sym= A
 Ene=               9
 Spin= Alpha
 Occup=    0.00000
   1    -0.015947566300293
   2      0.22926283644663
   3     -0.47741339548231
   4    2.6562291201961e-12
   5      0.45618582182632
   6     -0.65204652832185
   7    -2.8816921365461e-12
   8        -1.18703241154
   9      0.60299133389761
  10     0.021271001468149
  11      0.82503597209061
  12     -0.73978923459862
  13      0.11818328874691
 Sym= A
 Ene=              10
 Spin= Alpha
 Occup=    0.00000
   1    -0.074215375306598
   2       0.3128807181488
   3      0.13873597999278
   4    -6.6653265737423e-13
   5      0.29048985097351
   6      0.35732665850195
   7    7.2315904747487e-13
   8     0.088691369287267
   9     -0.98634616062916
  10      -1.0416645170971
  11      0.13245951452188
  12      -0.5929308968802
  13      0.31403776015408
 Sym= A
 Ene=              11
 Spin= Alpha
 Occup=    0.00000
   1    -0.017346017382232
   2       0.1602506790422
   3      -0.3064626995027
   4    2.3712290814828e-12
   5     -0.69719496020274
   6     -0.55470781354171
   7    -2.5725195668936e-12
   8       1.2322181842069
   9      0.43848436146766
  10     -0.61625688735679
  11     0.022003157162285
  12     -0.18253846949804
  13      0.80610744655555
 Sym= A
 Ene=              12
 Spin= Alpha
 Occup=    0.00000
   1     0.021890589610381
   2      -1.0865506950756
   3       1.9658345564073
   4    -4.5602047534573e-13
   5     -0.44251933614147
   6      0.24975316590892
   7    4.9493847612501e-13
   8     -0.34125056477485
   9     -0.85177552863938
  10     0.025340017513281
  11     -0.26386014149342
  12     -0.95425240820738
  13     -0.58475401711957
