[Molden Format]
made by pyscf v[2.11.0]
[Atoms] (AU)
O   1   8     0.00000000000000     0.00000000000000     0.22166487441148
H   2   1     0.00000000000000     1.43090062152066    -0.88665949764593
H   3   1     0.00000000000000    -1.43090062152066    -0.88665949764593
[GTO]
1 0
 s    6 1.00
             5484.6717   0.001831099805527
             825.23495   0.013950098518422
             188.04696    0.06844509273075
               52.9645    0.23271427528445
              16.89757    0.47019295006289
             5.7996353    0.35852086192309
 s    3 1.00
             15.539616   -0.11077750382508
             3.5999336   -0.14802630511126
             1.0137618     1.1307670390447
 s    1 1.00
             0.2700058                   1
 p    3 1.00
             15.539616   0.070874299543311
             3.5999336    0.33975279781076
             1.0137618    0.72715859531445
 p    1 1.00
             0.2700058                   1

2 0
 s    3 1.00
             18.731137    0.03349459952309
             2.8253937    0.23472694665786
             0.6401217    0.81375731841339
 s    1 1.00
             0.1612778                   1

3 0
 s    3 1.00
             18.731137    0.03349459952309
             2.8253937    0.23472694665786
             0.6401217    0.81375731841339
 s    1 1.00
             0.1612778                   1

[5d]
[7f]
[9g]

[MO]
 Sym= A
 Ene=               0
 Spin= Alpha
 Occup=    1.00000
   1     0.095699098199546
   2      -0.2125345158935
   3     -0.38471599861896
   4    -5.5110953497561e-14
   5    1.7673032688201e-14
   6     -0.54137597564121
   7    -4.3060710457298e-14
   8    1.7962285131866e-15
   9     -0.37453286330943
  10        0.138164254902
  11      0.10342793294677
  12      0.13816425490198
  13       0.1034279329467
 Sym= A
 Ene=               1
 Spin= Alpha
 Occup=    1.00000
   1    -3.4590965126801e-15
   2    1.1134530626908e-14
   3    -6.7346651921767e-16
   4    -3.7838446537478e-14
   5     -0.51677809053634
   6    -3.5453798645214e-14
   7    -2.953679784021e-14
   8      -0.2336558381301
   9    -1.961480354719e-14
  10     -0.26763982437042
  11      -0.1494200530401
  12      0.26763982437045
  13      0.14942005304012
 Sym= A
 Ene=               2
 Spin= Alpha
 Occup=    1.00000
   1    -1.7401483575627e-14
   2    4.2259975608289e-14
   3    5.6668729929761e-14
   4     -0.64622425938488
   5    3.0202645452766e-14
   6    3.7402707849961e-14
   7     -0.50502017458196
   8    1.3392609302649e-14
   9    2.7478671386331e-14
  10    1.1794804087689e-14
  11    1.3263102151853e-16
  12    -1.9411283608278e-14
  13    -1.8377970791992e-14
 Sym= A
 Ene=               3
 Spin= Alpha
 Occup=    1.00000
   1      0.20675800841697
   2     -0.45861627280261
   3     -0.43829506132286
   4    -3.4062175627183e-14
   5    -2.3947800013242e-14
   6      0.16632620834732
   7    -2.6597222169637e-14
   8    -9.9149089530645e-15
   9     0.078504712571731
  10     -0.15520509956563
  11    -0.0025865972515991
  12      -0.1552050995656
  13    -0.0025865972515806
 Sym= A
 Ene=               4
 Spin= Alpha
 Occup=    1.00000
   1       0.9950742163318
   2      0.02785141252758
   3     -0.01327221167374
   4    1.1019439316922e-15
   5    7.5627758867953e-16
   6    -0.0021739517394708
   7    8.5803095513908e-16
   8    3.5457026457551e-16
   9    0.0027351739146447
  10    7.4218858982961e-05
  11    0.0030873024016634
  12    7.4218858982189e-05
  13     0.003087302401663
 Sym= A
 Ene=               5
 Spin= Alpha
 Occup=    0.00000
   1     0.089626028017745
   2     -0.17632475775144
   3      -1.0662542161042
   4    -1.714520648163e-15
   5    -2.69087866781e-14
   6      0.28309150454961
   7    1.6141858992862e-15
   8    -3.923132078778e-14
   9      0.44814812026941
  10     0.097965603780575
  11      0.93214567329404
  12      0.09796560378059
  13      0.93214567329385
 Sym= A
 Ene=               6
 Spin= Alpha
 Occup=    0.00000
   1    -4.5366471246678e-15
   2    4.1325039099133e-15
   3    6.9938433596343e-14
   4    -1.30683549476e-14
   5     -0.58246570704713
   6    -1.5599160568002e-14
   7    1.4497131849596e-14
   8     -0.59816746453802
   9    7.8972753836262e-15
  10      0.27086613515645
  11       1.0019842981705
  12      -0.2708661351564
  13      -1.0019842981707
 Sym= A
 Ene=               7
 Spin= Alpha
 Occup=    0.00000
   1    7.9816755373026e-15
   2    -8.6645385296227e-14
   3    9.9856632405482e-14
   4      0.95835302559279
   5    -1.0655368791955e-14
   6    1.2657419633254e-14
   7      -1.0397119496984
   8    5.8946953895802e-15
   9    1.4718454755771e-14
  10    5.1725910178133e-14
  11    -3.5931757347708e-14
  12    7.4228952039696e-14
  13    -8.1679675948685e-14
 Sym= A
 Ene=               8
 Spin= Alpha
 Occup=    0.00000
   1    -0.074951049812283
   2       1.1529607962064
   3      -1.7151745574093
   4     6.97618597683e-14
   5    3.4475976057404e-13
   6     -0.57265970774302
   7    -7.5665520376691e-14
   8    -5.6685551815042e-13
   9      0.56193252216752
  10     -0.50517622184708
  11      0.86279938035678
  12     -0.50517622184672
  13      0.86279938035559
 Sym= A
 Ene=               9
 Spin= Alpha
 Occup=    0.00000
   1    -0.066379140518585
   2      0.72814440944711
   3     -0.62978987243665
   4    3.3340278444481e-14
   5    -1.7340836867197e-12
   6      0.80042004287365
   7    -3.6115833928581e-14
   8    1.0372646621689e-12
   9     -0.97473632576417
  10     -0.16928394504199
  11     0.059343541244192
  12     -0.16928394504891
  13     0.059343541253904
 Sym= A
 Ene=              10
 Spin= Alpha
 Occup=    0.00000
   1    -0.0017726520764666
   2     -0.64836061139128
   3       1.2738265079306
   4    4.1508792652938e-16
   5      0.14694827497424
   6       0.0435282474519
   7    -2.6769767749029e-16
   8      0.20398436234095
   9     -0.59046951432968
  10      -1.3221081242626
  11       0.6538683756998
  12      0.17626226232459
  13     -0.90064949471569
 Sym= A
 Ene=              11
 Spin= Alpha
 Occup=    0.00000
   1    -9.7804631482781e-05
   2    -0.035772767567245
   3     0.070282337927367
   4    -4.4671603615378e-15
   5     -0.90436463886161
   6    0.0024016355257643
   7    4.7452037425069e-15
   8       1.7849943892155
   9    -0.032578673533182
  10     -0.12968230630256
  11      -1.0465878627214
  12      0.06646119606534
  13       1.0329719158934
 Sym= A
 Ene=              12
 Spin= Alpha
 Occup=    0.00000
   1    -0.0023809464472072
   2      -0.8708487779201
   3       1.7109464057818
   4    2.5131469765222e-14
   5    -0.072255768141865
   6     0.058465181920149
   7    -2.723952439225e-14
   8     -0.22519365043395
   9     -0.79309206313902
  10     -0.20771552724029
  11     -0.70170201708606
  12      -1.3313330377338
  13      0.37023673043556
