[Molden Format]
made by pyscf v[2.11.0]
[Atoms] (AU)
O   1   8     0.00000000000000     0.00000000000000     0.22166487441148
H   2   1     0.00000000000000     1.43090062152066    -0.88665949764593
H   3   1     0.00000000000000    -1.43090062152066    -0.88665949764593
[GTO]
1 0
 s    6 1.00
             5484.6717   0.001831099805527
             825.23495   0.013950098518422
             188.04696    0.06844509273075
               52.9645    0.23271427528445
              16.89757    0.47019295006289
             5.7996353    0.35852086192309
 s    3 1.00
             15.539616   -0.11077750382508
             3.5999336   -0.14802630511126
             1.0137618     1.1307670390447
 s    1 1.00
             0.2700058                   1
 p    3 1.00
             15.539616   0.070874299543311
             3.5999336    0.33975279781076
             1.0137618    0.72715859531445
 p    1 1.00
             0.2700058                   1

2 0
 s    3 1.00
             18.731137    0.03349459952309
             2.8253937    0.23472694665786
             0.6401217    0.81375731841339
 s    1 1.00
             0.1612778                   1

3 0
 s    3 1.00
             18.731137    0.03349459952309
             2.8253937    0.23472694665786
             0.6401217    0.81375731841339
 s    1 1.00
             0.1612778                   1

[5d]
[7f]
[9g]

[MO]
 Sym= A
 Ene=               0
 Spin= Alpha
 Occup=    1.00000
   1    1.1528167186236e-14
   2    -2.6124848814646e-14
   3    -4.8875007779485e-14
   4      0.64622425938488
   5    -3.1571736641835e-15
   6    -7.1693934969242e-14
   7      0.50502017458197
   8    -1.7036292936812e-15
   9    -4.9560727845557e-14
  10    1.7302674991294e-14
  11    1.2749705807482e-14
  12    2.0202148652512e-14
  13    1.4544776822506e-14
 Sym= A
 Ene=               1
 Spin= Alpha
 Occup=    1.00000
   1      0.15870282332113
   2     -0.50491331225856
   3     -0.56749542485096
   4     -3.8771989605e-14
   5    6.0600987451128e-14
   6     -0.11603327745605
   7    -3.0306704176007e-14
   8    2.7453993897157e-14
   9     -0.11248414509632
  10    -0.068796197145286
  11     0.047468751409989
  12    -0.068796197145349
  13     0.047468751409959
 Sym= A
 Ene=               2
 Spin= Alpha
 Occup=    1.00000
   1    -0.0033271762661549
   2     0.028561540162519
   3    -0.099626489810324
   4    -6.2501801142341e-14
   5     -0.31282022103792
   6     -0.44123323305211
   7    -4.8824146353243e-14
   8     -0.14143840899834
   9     -0.29114926084223
  10    -0.0060389411523485
  11    -0.017353411036507
  12      0.31798079014554
  13      0.16354285711216
 Sym= A
 Ene=               3
 Spin= Alpha
 Occup=    1.00000
   1     0.059802425322577
   2     0.021239829796313
   3    -0.078751987623927
   4    -4.2572492920025e-14
   5      0.41055657232572
   6     -0.33512332774114
   7    -3.3300803293142e-14
   8      0.18562888358334
   9     -0.22102604149112
  10      0.33058184524633
  11      0.17451253940998
  12     -0.09467336941397
  13    -0.062902265653481
 Sym= A
 Ene=               4
 Spin= Alpha
 Occup=    1.00000
   1       1.0066309657181
   2    -0.0084357846748111
   3    -0.045899256232371
   4    1.0426964271626e-15
   5    -0.025424497798916
   6     0.017290125150762
   7    8.1614485609389e-16
   8    -0.011495422215128
   9     0.013124433961533
  10    -0.027483147616504
  11    -0.0055553433072829
  12    -0.0011484083919891
  13    0.0091470207410443
 Sym= A
 Ene=               5
 Spin= Alpha
 Occup=    0.00000
   1     0.088058911461183
   2     -0.16070421889284
   3      -1.0756186277941
   4    -4.6333608424816e-14
   5    -3.9451700199567e-14
   6      0.31062383041332
   7    5.0193730406565e-14
   8    -1.6979140526858e-14
   9      0.41582154521898
  10      0.09677667915825
  11      0.92821589386085
  12     0.096776679158258
  13       0.9282158938607
 Sym= A
 Ene=               6
 Spin= Alpha
 Occup=    0.00000
   1    -4.8495225692887e-13
   2    9.8794712087591e-12
   3    -1.2822609991146e-11
   4      0.95835302559279
   5    6.7145617270476e-13
   6    7.4252253285438e-12
   7      -1.0397119496984
   8    1.226807609525e-12
   9    -4.8443386391505e-12
  10    3.6950958781005e-12
  11    -2.3243147449974e-12
  12    3.6307566276691e-12
  13    2.4544867182124e-12
 Sym= A
 Ene=               7
 Spin= Alpha
 Occup=    0.00000
   1     0.054371216293833
   2      -1.1756514315844
   3       1.7598184362064
   4    6.1359456089366e-12
   5    -0.056765189644638
   6     -0.10525938170601
   7    -6.6568327633718e-12
   8     -0.66903833580876
   9      -0.1950095335432
  10     -0.31114250637917
  11      0.76030847933117
  12    0.0039076502301624
  13      -1.5722061110266
 Sym= A
 Ene=               8
 Spin= Alpha
 Occup=    0.00000
   1     0.053519961983047
   2      -1.1415998992084
   3       1.6776343554155
   4    4.6605849739329e-12
   5     -0.13651701785493
   6     -0.19504391191292
   7    -5.0563456094756e-12
   8      0.68199059401596
   9    -0.093534999575126
  10      0.13105847182157
  11       -1.548197136354
  12     -0.48769080990236
  13      0.85374725755353
 Sym= A
 Ene=               9
 Spin= Alpha
 Occup=    0.00000
   1     0.013239657243997
   2     -0.30732321098914
   3      0.62898489404484
   4    -3.6638538428191e-12
   5     -0.57872028403113
   6      0.57013295290709
   7    3.975092514424e-12
   8       1.3306336808469
   9     -0.62289222912106
  10     -0.19978323014225
  11     -0.77185766938116
  12      0.61870844454783
  13     -0.08142225949288
 Sym= A
 Ene=              10
 Spin= Alpha
 Occup=    0.00000
   1     -0.04632654394118
   2     -0.17167633804783
   3      0.87769446817406
   4    -2.4680711492136e-12
   5     -0.12494509575497
   6      0.54180192763642
   7    2.6776367920406e-12
   8     -0.44643641739079
   9      -1.2133211137192
  10     -0.22782124250155
  11     -0.12433823119006
  12       -1.146295951239
  13    -0.065869329854437
 Sym= A
 Ene=              11
 Spin= Alpha
 Occup=    0.00000
   1    -0.031267278830567
   2      0.47791365797028
   3     -0.78630031774458
   4    3.5151609934581e-12
   5     -0.81531769496571
   6     -0.51750910344634
   7    -3.8136569224592e-12
   8       0.7542475333526
   9      0.49237312980512
  10      -0.2048325365943
  11      0.29685863319193
  12     -0.47725624882185
  13       0.7335045795758
 Sym= A
 Ene=              12
 Spin= Alpha
 Occup=    0.00000
   1    -0.034517075871151
   2    -0.084129757757865
   3      0.42149391992308
   4    2.0312309132164e-12
   5      0.38317857548536
   6     -0.14847702033557
   7    -2.2036975933434e-12
   8      0.42991488853585
   9     -0.35095186996803
  10      -1.3847869841111
  11      0.31649776709973
  12    -0.054475033633348
  13      0.15744758623436
