[Molden Format]
made by pyscf v[2.11.0]
[Atoms] (AU)
O   1   8     0.00000000000000     0.00000000000000     0.22166487441148
H   2   1     0.00000000000000     1.43090062152066    -0.88665949764593
H   3   1     0.00000000000000    -1.43090062152066    -0.88665949764593
[GTO]
1 0
 s    6 1.00
             5484.6717   0.001831099805527
             825.23495   0.013950098518422
             188.04696    0.06844509273075
               52.9645    0.23271427528445
              16.89757    0.47019295006289
             5.7996353    0.35852086192309
 s    3 1.00
             15.539616   -0.11077750382508
             3.5999336   -0.14802630511126
             1.0137618     1.1307670390447
 s    1 1.00
             0.2700058                   1
 p    3 1.00
             15.539616   0.070874299543311
             3.5999336    0.33975279781076
             1.0137618    0.72715859531445
 p    1 1.00
             0.2700058                   1

2 0
 s    3 1.00
             18.731137    0.03349459952309
             2.8253937    0.23472694665786
             0.6401217    0.81375731841339
 s    1 1.00
             0.1612778                   1

3 0
 s    3 1.00
             18.731137    0.03349459952309
             2.8253937    0.23472694665786
             0.6401217    0.81375731841339
 s    1 1.00
             0.1612778                   1

[5d]
[7f]
[9g]

[MO]
 Sym= A
 Ene=               0
 Spin= Alpha
 Occup=    1.00000
   1     0.095699098199546
   2      -0.2125345158935
   3     -0.38471599861895
   4    -9.1650802416518e-14
   5    -3.308088849659e-13
   6     -0.54137597564121
   7    -7.1629639760867e-14
   8    -1.4931798795489e-13
   9     -0.37453286330943
  10      0.13816425490182
  11      0.10342793294663
  12      0.13816425490216
  13      0.10342793294684
 Sym= A
 Ene=               1
 Spin= Alpha
 Occup=    1.00000
   1    5.8781902371287e-14
   2    -1.3148895543124e-13
   3    -2.4597149460196e-13
   4    -3.1265423080534e-14
   5      0.51677809053634
   6    -3.5285961868598e-13
   7    -2.4470638524566e-14
   8       0.2336558381301
   9    -2.3851061457823e-13
  10      0.26763982437053
  11      0.14942005304018
  12     -0.26763982437035
  13     -0.14942005304005
 Sym= A
 Ene=               2
 Spin= Alpha
 Occup=    1.00000
   1    5.0848099941363e-15
   2    -1.7792792702282e-14
   3    -4.2706901627284e-14
   4      0.64622425938488
   5    2.5069460223325e-14
   6    -8.1211198607247e-14
   7      0.50502017458197
   8    1.1058749606191e-14
   9    -5.5308668659509e-14
  10    3.6965282071579e-14
  11    2.2045565348672e-14
  12    1.0627559053731e-14
  13    7.5178656818417e-15
 Sym= A
 Ene=               3
 Spin= Alpha
 Occup=    1.00000
   1      0.20675800841702
   2     -0.45861627280261
   3     -0.43829506132286
   4    1.7527431515904e-14
   5    5.8935679533369e-15
   6      0.16632620834732
   7    1.3692787539105e-14
   8    2.5850229774952e-15
   9     0.078504712571733
  10     -0.15520509956561
  11    -0.0025865972515876
  12     -0.15520509956562
  13    -0.0025865972515914
 Sym= A
 Ene=               4
 Spin= Alpha
 Occup=    1.00000
   1      0.99507421633179
   2     0.027851412527604
   3    -0.013272211673718
   4    1.8747137171329e-15
   5    3.1586506764551e-16
   6    -0.0021739517394793
   7    1.4648922852157e-15
   8    1.2940112971181e-16
   9    0.0027351739146408
  10    7.4218858990735e-05
  11    0.0030873024016635
  12    7.4218858990456e-05
  13    0.0030873024016633
 Sym= A
 Ene=               5
 Spin= Alpha
 Occup=    0.00000
   1     0.089626028017746
   2     -0.17632475775145
   3      -1.0662542161042
   4    -3.7649532381498e-15
   5    3.6150209677255e-14
   6      0.28309150454962
   7    4.0057863529811e-15
   8    6.7921131727504e-14
   9      0.44814812026941
  10     0.097965603780624
  11      0.93214567329374
  12     0.097965603780549
  13      0.93214567329413
 Sym= A
 Ene=               6
 Spin= Alpha
 Occup=    0.00000
   1    -1.5448974357481e-14
   2    1.4008311640079e-13
   3    -1.8158208463585e-13
   4    -1.5094530405719e-14
   5     -0.58246570704713
   6    1.181347492637e-13
   7     1.64206742171e-14
   8     -0.59816746453804
   9    -2.1794588265691e-13
  10      0.27086613515618
  11       1.0019842981708
  12     -0.27086613515666
  13      -1.0019842981704
 Sym= A
 Ene=               7
 Spin= Alpha
 Occup=    0.00000
   1    9.0271278493269e-15
   2    -1.2709051241402e-13
   3    1.4284149806933e-13
   4      0.95835302559279
   5    1.2111380775561e-13
   6    -8.4927193614249e-14
   7      -1.0397119496984
   8    -1.8514501270156e-13
   9    8.6209179684261e-14
  10    -1.0458290591588e-13
  11     2.46974446965e-13
  12    1.1067613713107e-13
  13    -2.8438774061937e-13
 Sym= A
 Ene=               8
 Spin= Alpha
 Occup=    0.00000
   1    -0.074951049812286
   2       1.1529607962063
   3       -1.715174557409
   4    1.1589536417314e-14
   5    -5.3199669382195e-13
   6     -0.57265970774297
   7    -1.2709938548525e-14
   8    8.4128643164082e-13
   9      0.56193252216733
  10     -0.50517622184644
  11      0.86279938035473
  12     -0.50517622184767
  13       0.8627993803576
 Sym= A
 Ene=               9
 Spin= Alpha
 Occup=    0.00000
   1    -0.066379140518546
   2      0.72814440946016
   3     -0.62978987246231
   4    1.1322010869906e-13
   5    3.3273393656462e-12
   6       0.8004200428728
   7    -1.2268189323133e-13
   8    -7.0222764785021e-12
   9     -0.97473632575227
  10     -0.16928394503229
  11     0.059343541253977
  12     -0.16928394503541
  13     0.059343541249026
 Sym= A
 Ene=              10
 Spin= Alpha
 Occup=    0.00000
   1    -0.0017726520779814
   2     -0.64836061180013
   3       1.2738265087383
   4    -1.1762016222587e-13
   5      0.14694827487969
   6     0.043528247483343
   7    1.2766884882482e-13
   8      0.20398436235416
   9     -0.59046951471068
  10      -1.3221081243705
  11      0.65386837529951
  12      0.17626226169955
  13     -0.90064949447075
 Sym= A
 Ene=              11
 Spin= Alpha
 Occup=    0.00000
   1    -9.7804631883139e-05
   2    -0.035772767603805
   3     0.070282338003052
   4    1.1465217660938e-13
   5     -0.90436463887831
   6    0.0024016355332459
   7    -1.243382174709e-13
   8       1.7849943891805
   9    -0.032578673574891
  10     -0.12968230623431
  11      -1.0465878628324
  12     0.066461195926452
  13       1.0329719159884
 Sym= A
 Ene=              12
 Spin= Alpha
 Occup=    0.00000
   1    -0.0023809464470471
   2     -0.87084877760347
   3       1.7109464051683
   4    5.3756879615597e-14
   5    -0.072255768125115
   6     0.058465181908584
   7    -5.8410704834052e-14
   8     -0.22519365069992
   9     -0.79309206286842
  10     -0.20771552660557
  11     -0.70170201729523
  12      -1.3313330378248
  13      0.37023673076249
