[Molden Format]
made by pyscf v[2.11.0]
[Atoms] (AU)
O   1   8     0.00000000000000     0.00000000000000     0.22166487441148
H   2   1     0.00000000000000     1.43090062152066    -0.88665949764593
H   3   1     0.00000000000000    -1.43090062152066    -0.88665949764593
[GTO]
1 0
 s    6 1.00
             5484.6717   0.001831099805527
             825.23495   0.013950098518422
             188.04696    0.06844509273075
               52.9645    0.23271427528445
              16.89757    0.47019295006289
             5.7996353    0.35852086192309
 s    3 1.00
             15.539616   -0.11077750382508
             3.5999336   -0.14802630511126
             1.0137618     1.1307670390447
 s    1 1.00
             0.2700058                   1
 p    3 1.00
             15.539616   0.070874299543311
             3.5999336    0.33975279781076
             1.0137618    0.72715859531445
 p    1 1.00
             0.2700058                   1

2 0
 s    3 1.00
             18.731137    0.03349459952309
             2.8253937    0.23472694665786
             0.6401217    0.81375731841339
 s    1 1.00
             0.1612778                   1

3 0
 s    3 1.00
             18.731137    0.03349459952309
             2.8253937    0.23472694665786
             0.6401217    0.81375731841339
 s    1 1.00
             0.1612778                   1

[5d]
[7f]
[9g]

[MO]
 Sym= A
 Ene=               0
 Spin= Alpha
 Occup=    1.00000
   1    4.8993998344949e-15
   2    -1.4507102816724e-14
   3    -2.0355367193265e-14
   4      0.73243030119679
   5    -1.5985207929199e-13
   6    -6.4715649998892e-14
   7      0.40628364069882
   8    -6.8055798841556e-14
   9    -3.5445791060824e-14
  10    -5.2427557056983e-14
  11    -9.751709481746e-15
  12    8.2439653835492e-14
  13    1.7973623187494e-14
 Sym= A
 Ene=               1
 Spin= Alpha
 Occup=    1.00000
   1    -1.5119230419541e-15
   2    -4.2582498136187e-14
   3    1.3633803682396e-13
   4    1.9687909602938e-13
   5      0.59465201472055
   6    1.7764101838088e-13
   7    1.093415422653e-13
   8      0.25436614734848
   9    7.9537990183272e-14
  10      0.25029370582545
  11     0.050747653246985
  12     -0.25029370582554
  13    -0.050747653247037
 Sym= A
 Ene=               2
 Spin= Alpha
 Occup=    1.00000
   1       0.1028947739514
   2     -0.26149602357433
   3     -0.30721040796132
   4    -7.1956954335275e-14
   5    1.3338187726998e-13
   6     -0.60570573315379
   7    -3.9926488136553e-14
   8    4.0198870992993e-14
   9     -0.33455777716662
  10      0.12004703332067
  11     0.047347003251863
  12      0.12004703332049
  13     0.047347003251806
 Sym= A
 Ene=               3
 Spin= Alpha
 Occup=    1.00000
   1      0.20203885366976
   2     -0.49149563725497
   3     -0.43147272068914
   4    1.682880093798e-14
   5    -5.6222472565144e-14
   6      0.22379397289804
   7    9.3314704097115e-15
   8    -4.9372771041291e-14
   9      0.11270831869328
  10     -0.14209230636095
  11     0.025099652608674
  12       -0.142092306361
  13     0.025099652608716
 Sym= A
 Ene=               4
 Spin= Alpha
 Occup=    1.00000
   1       0.9965326346066
   2     0.024720520528865
   3    -0.016995596310727
   4    4.4632994719972e-16
   5    -3.0364415264612e-15
   6     -0.00130822124787
   7    2.4711667006975e-16
   8    -1.4158464254984e-15
   9    0.0032193661391758
  10    -0.0008273536360298
  11    0.0033916834693962
  12    -0.00082735363602774
  13    0.0033916834693968
 Sym= A
 Ene=               5
 Spin= Alpha
 Occup=    0.00000
   1    1.6840896523692e-13
   2    -2.974254421689e-13
   3    -2.0368986958236e-12
   4    -9.4118167176252e-14
   5       0.6503810017866
   6    5.2382072701172e-13
   7    1.137003481196e-13
   8      0.37494224228587
   9    7.4086949556388e-13
  10     -0.41514034138706
  11     -0.72623890864285
  12      0.41514034138784
  13      0.72623890864611
 Sym= A
 Ene=               6
 Spin= Alpha
 Occup=    0.00000
   1    -3.0142672966876e-14
   2    -7.6410636245075e-14
   3    7.2814697959633e-13
   4     -0.89419917745945
   5    -6.2994613675752e-14
   6    2.7625047100826e-13
   7       1.0821182552665
   8    -5.9921054790356e-14
   9    -6.3240413698124e-13
  10    3.287555800944e-14
  11    -4.6065162927759e-13
  12    -9.015111454401e-14
  13    -5.9316462149776e-13
 Sym= A
 Ene=               7
 Spin= Alpha
 Occup=    0.00000
   1    -0.091861701765501
   2      0.29831969913701
   3      0.88308822725621
   4    3.3036663115194e-13
   5     0.052036327746999
   6     -0.16799128320869
   7    -3.9981484851939e-13
   8     -0.10093299342713
   9     -0.47910903386355
  10      -0.1521493654596
  11     -0.77858882122348
  12    -0.097358343092158
  13      -1.0021890771748
 Sym= A
 Ene=               8
 Spin= Alpha
 Occup=    0.00000
   1     0.038767718818851
   2     -0.58322222846789
   3       0.8468809026278
   4    1.2065366310789e-13
   5      0.56557202116447
   6      0.39253308649512
   7    -1.4602596544578e-13
   8      -1.0636886814379
   9     -0.38513938949896
  10    -0.091429032297918
  11      0.86366330181733
  12      0.64566845062853
  13       -1.717214329997
 Sym= A
 Ene=               9
 Spin= Alpha
 Occup=    0.00000
   1    -0.021708476751337
   2      0.66181441257128
   3      -1.2812683286655
   4    -2.7046019153867e-13
   5      0.44773727830143
   6     -0.72408930176553
   7    3.2722189460979e-13
   8     -0.94672350903188
   9      0.99208336456774
  10     -0.19402998807478
  11       1.4052938079963
  12    -0.055042652964482
  13     -0.16498470120703
 Sym= A
 Ene=              10
 Spin= Alpha
 Occup=    0.00000
   1     0.065235419733063
   2     -0.37038059597684
   3      0.11294924193455
   4    -9.1576235907627e-14
   5     -0.11543700926659
   6     -0.35640679061915
   7    1.1086913153552e-13
   8      0.18938351694216
   9      0.94746734099484
  10      0.97018546418791
  11      -0.7028167264489
  12      0.70197826525643
  13     -0.05077312834439
 Sym= A
 Ene=              11
 Spin= Alpha
 Occup=    0.00000
   1    -0.010124506859977
   2       0.4044051286633
   3     -0.64478361839735
   4    8.891353721543e-14
   5      0.35074580316543
   6      0.27569988181774
   7    -1.0763794055545e-13
   8      -1.1152389481045
   9     -0.10791148417668
  10       0.9570693276852
  11     -0.18304327482635
  12     -0.52104998396912
  13      0.27502914965725
 Sym= A
 Ene=              12
 Spin= Alpha
 Occup=    0.00000
   1     0.029834990871325
   2       -1.359588877625
   3       2.3500028816956
   4    -9.3113937860984e-15
   5      0.12252770201998
   6     -0.21958641548452
   7    1.1225888208459e-14
   8     -0.41001439434461
   9     -0.44247358380341
  10     -0.30590763847139
  11     -0.53087184409876
  12     -0.90901853137439
  13     -0.27856731252894
