[Molden Format]
made by pyscf v[2.11.0]
[Atoms] (AU)
O   1   8     0.00000000000000     0.00000000000000     0.22166487441148
H   2   1     0.00000000000000     1.43090062152066    -0.88665949764593
H   3   1     0.00000000000000    -1.43090062152066    -0.88665949764593
[GTO]
1 0
 s    6 1.00
             5484.6717   0.001831099805527
             825.23495   0.013950098518422
             188.04696    0.06844509273075
               52.9645    0.23271427528445
              16.89757    0.47019295006289
             5.7996353    0.35852086192309
 s    3 1.00
             15.539616   -0.11077750382508
             3.5999336   -0.14802630511126
             1.0137618     1.1307670390447
 s    1 1.00
             0.2700058                   1
 p    3 1.00
             15.539616   0.070874299543311
             3.5999336    0.33975279781076
             1.0137618    0.72715859531445
 p    1 1.00
             0.2700058                   1

2 0
 s    3 1.00
             18.731137    0.03349459952309
             2.8253937    0.23472694665786
             0.6401217    0.81375731841339
 s    1 1.00
             0.1612778                   1

3 0
 s    3 1.00
             18.731137    0.03349459952309
             2.8253937    0.23472694665786
             0.6401217    0.81375731841339
 s    1 1.00
             0.1612778                   1

[5d]
[7f]
[9g]

[MO]
 Sym= A
 Ene=               0
 Spin= Alpha
 Occup=    1.00000
   1     0.082410982359895
   2     -0.20465077945566
   3     -0.27490948046277
   4    -2.1303676265675e-16
   5    1.4031143763254e-15
   6     -0.61197440693968
   7    -1.3071517867233e-16
   8    -1.6029890688352e-14
   9     -0.35474094742322
  10      0.13602814893821
  11     0.047689626762874
  12      0.13602814893814
  13     0.047689626762876
 Sym= A
 Ene=               1
 Spin= Alpha
 Occup=    1.00000
   1    -1.6560518610286e-14
   2    -2.5057802660681e-14
   3    1.4569679569712e-13
   4    -1.0505737975972e-16
   5      0.57436902687673
   6    6.643576251289e-15
   7    -2.3808554152694e-16
   8      0.24865653978603
   9    -1.3513324303876e-14
  10      0.26427855615118
  11     0.062783783099575
  12     -0.26427855615117
  13    -0.062783783099617
 Sym= A
 Ene=               2
 Spin= Alpha
 Occup=    1.00000
   1      0.20260314820972
   2     -0.49524917851716
   3     -0.45602975697504
   4    4.9419871046106e-17
   5    3.9869698296961e-14
   6      0.15277356123316
   7    2.413464231399e-18
   8    -9.2710949512375e-15
   9     0.067047111671547
  10     -0.14757243433151
  11      0.02331520181033
  12     -0.14757243433165
  13      0.02331520181035
 Sym= A
 Ene=               3
 Spin= Alpha
 Occup=    1.00000
   1       0.9976485745582
   2     0.021312966825833
   3    -0.018252639021094
   4    6.0615604078556e-19
   5     1.18478718767e-16
   6    -0.00029611544425482
   7    7.1989549707427e-20
   8    -1.8557588713832e-16
   9    0.0035756042966735
  10    -0.0016042419639121
  11    0.0032617173218268
  12    -0.0016042419639132
  13    0.0032617173218271
 Sym= A
 Ene=               4
 Spin= Alpha
 Occup=    1.00000
   1    -0.094628159200297
   2      0.26495051505451
   3      0.91916562890545
   4    6.8415924792167e-14
   5    6.6937899680781e-14
   6     -0.34515625971829
   7    1.5424934735751e-14
   8    1.0667482509645e-13
   9     -0.32371231316311
  10      -0.1995644987122
  11     -0.81917946167868
  12     -0.19956449871199
  13     -0.81917946167862
 Sym= A
 Ene=               5
 Spin= Alpha
 Occup=    0.00000
   1    1.2766386897476e-14
   2    8.3788613583675e-14
   3    -3.7319457443498e-13
   4    2.5667076759467e-13
   5      0.53144285518019
   6    -8.2087823222735e-14
   7    1.4239490104362e-13
   8      0.69606439697977
   9    1.6832185650025e-13
  10     -0.51587938025528
  11     -0.78278101784719
  12      0.51587938025519
  13      0.78278101784768
 Sym= A
 Ene=               6
 Spin= Alpha
 Occup=    0.00000
   1    -0.023609592762706
   2      0.26053445313537
   3     -0.58674556524617
   4    -4.5362154440363e-12
   5    -2.1301221725792e-13
   6      -0.7437766533809
   7    -2.5194100802245e-12
   8    1.528610121338e-13
   9      0.63618542603929
  10     -0.64792967761993
  11      0.74992537748447
  12     -0.64792967762019
  13      0.74992537748472
 Sym= A
 Ene=               7
 Spin= Alpha
 Occup=    0.00000
   1     0.058362353202067
   2      -1.6980919475414
   3       2.7763052918201
   4    -3.8266244523906e-12
   5    -2.0179549663279e-12
   6    0.0033204137971459
   7    -2.0395110950407e-12
   8    4.0112040663214e-12
   9     -0.60400039653212
  10     -0.37829860270227
  11     -0.65288939589446
  12      -0.3782986027013
  13     -0.65288939589062
 Sym= A
 Ene=               8
 Spin= Alpha
 Occup=    0.00000
   1    0.0058972365508582
   2    -0.012277667971135
   3    -0.040184240436997
   4     -0.26109735918989
   5    -0.00048417772231844
   6    -0.050925524471453
   7     -0.19657862441771
   8     -0.19843200263984
   9      0.11624236504359
  10       0.8325076501334
  11      -1.0363807860757
  12     -0.68778985939295
  13       1.0201287759117
 Sym= A
 Ene=               9
 Spin= Alpha
 Occup=    0.00000
   1    -1.7924717577879e-14
   2    6.8442173585988e-13
   3    -1.008410435397e-12
   4     -0.95151942738695
   5    1.4375663449849e-14
   6    3.7055925683641e-13
   7         1.04495389221
   8    -1.2859870483438e-13
   9    -4.3776210058879e-14
  10     1.06604693872e-12
  11    -8.8917553052697e-13
  12    -5.6522839559734e-14
  13    7.1705440179298e-13
 Sym= A
 Ene=              10
 Spin= Alpha
 Occup=    0.00000
   1     0.062333863644421
   2     -0.12977510308842
   3      -0.4247479208649
   4      0.14502466471475
   5    1.1978747074583e-06
   6     -0.53828342667586
   7      0.10918819395402
   8    0.00049092843593997
   9       1.2286832433823
  10      0.76295378607057
  11     -0.08334803267829
  12      0.76671506081331
  13    -0.088435916745052
 Sym= A
 Ene=              11
 Spin= Alpha
 Occup=    0.00000
   1    1.2404718016989e-13
   2    -3.712328169239e-12
   3    6.0591343825441e-12
   4    -1.2047839428698e-12
   5      0.91579714871558
   6    -1.0389735695813e-13
   7    -9.0513112117254e-13
   8      -1.7599238454548
   9    -1.2481807319194e-12
  10     0.045158600759844
  11       1.0550635660037
  12    -0.045158600761726
  13      -1.0550635660064
 Sym= A
 Ene=              12
 Spin= Alpha
 Occup=    0.00000
   1     0.012835329028331
   2    -0.026722331170003
   3    -0.087460956218193
   4     -0.58433989255744
   5    0.00021663974458325
   6     -0.11083934939624
   7     -0.43994597504533
   8     0.088786114491003
   9      0.25300138285218
  10     -0.18263074846257
  11      0.44239451928007
  12       0.4976088648052
  13     -0.47776700197064
