[Molden Format]
made by pyscf v[2.11.0]
[Atoms] (AU)
C   1   6     5.47363329377744     0.02754275826554     0.00000000000000
C   2   6    -6.85126631529887    -2.34691701451171     0.00000000000000
C   3   6     2.71673452736297     0.01731745020551     0.00000000000000
C   4   6    -5.47213663068679    -0.02817959596951     0.00000000000000
C   5   6     1.37814135784893    -2.36189687350114     0.00000000000000
C   6   6    -1.37525763578285    -2.38411438354765     0.00000000000000
C   7   6    -2.71545518277664    -0.01865915575396     0.00000000000000
C   8   6     6.85342060308087     2.34830596321327     0.00000000000000
C   9   6     1.37667115092402     2.38258748483900     0.00000000000000
C   10   6    -9.62328855988824    -2.32065927001088     0.00000000000000
C   11   6    -1.37594360636606     2.36039076177986     0.00000000000000
C   12   6    -9.55752231130112     2.34616490351413     0.00000000000000
C   13   6    -5.48380757923210    -4.68010705845458     0.00000000000000
C   14   6     6.80532140403232    -2.31712359243182     0.00000000000000
C   15   6     2.81006243147686    -4.66903893254300     0.00000000000000
C   16   6     5.48319341824162     4.68218953664385     0.00000000000000
C   17   6     9.62360036469879     2.32528154011156     0.00000000000000
C   18   6    -2.82135732452339    -4.69617350996563     0.00000000000000
C   19   6     9.55480866458625    -2.34735165152036     0.00000000000000
C   20   6     2.82147826699536     4.69678578122999     0.00000000000000
C   21   6    -6.80623036229823     2.31679855953839     0.00000000000000
C   22   6     5.46723090166742    -4.64874894314355     0.00000000000000
C   23   6    -2.80738468955835     4.66746857013349     0.00000000000000
C   24   6    -5.46742365373212     4.64630174781224     0.00000000000000
O   25   8   -10.83251485836679     0.04933885938627     0.00000000000000
O   26   8    10.83595415991350    -0.04834108399250     0.00000000000000
O   27   8   -10.89906912274785     4.27076592370804     0.00000000000000
O   28   8   -11.06784623211113    -4.15258812105612     0.00000000000000
O   29   8    10.89761403363194    -4.27144244566064     0.00000000000000
O   30   8    11.06086369408087     4.15400163619729     0.00000000000000
H   31   1     1.82731413984905    -6.50052180822284     0.00000000000000
H   32   1    -6.54965279773541    -6.47293369653032     0.00000000000000
H   33   1    -1.83244096682500    -6.52843306308267     0.00000000000000
H   34   1     1.83127122635389     6.52801354388302     0.00000000000000
H   35   1     6.54794259559268     6.47548860625073     0.00000000000000
H   36   1     6.57841253962517    -6.42064497466360     0.00000000000000
H   37   1    -1.82707225490511     6.50017220888980     0.00000000000000
H   38   1    -6.57799491015164     6.41895933896049     0.00000000000000
[GTO]
1 0
 s    6 1.00
             3047.5249  0.0018347001629433
             457.36951    0.01403730124668
             103.94869   0.068842606114048
             29.210155    0.23218442062076
              9.286663    0.46794134155879
              3.163927    0.36231203217765
 s    3 1.00
             7.8682724   -0.11933240861517
             1.8812885   -0.16085421161283
             0.5442493     1.1434564825515
 s    1 1.00
             0.1687144                   1
 p    3 1.00
             7.8682724   0.068999095584993
             1.8812885    0.31642397975315
             0.5442493    0.74430825237435
 p    1 1.00
             0.1687144                   1

2 0
 s    6 1.00
             3047.5249  0.0018347001629433
             457.36951    0.01403730124668
             103.94869   0.068842606114048
             29.210155    0.23218442062076
              9.286663    0.46794134155879
              3.163927    0.36231203217765
 s    3 1.00
             7.8682724   -0.11933240861517
             1.8812885   -0.16085421161283
             0.5442493     1.1434564825515
 s    1 1.00
             0.1687144                   1
 p    3 1.00
             7.8682724   0.068999095584993
             1.8812885    0.31642397975315
             0.5442493    0.74430825237435
 p    1 1.00
             0.1687144                   1

3 0
 s    6 1.00
             3047.5249  0.0018347001629433
             457.36951    0.01403730124668
             103.94869   0.068842606114048
             29.210155    0.23218442062076
              9.286663    0.46794134155879
              3.163927    0.36231203217765
 s    3 1.00
             7.8682724   -0.11933240861517
             1.8812885   -0.16085421161283
             0.5442493     1.1434564825515
 s    1 1.00
             0.1687144                   1
 p    3 1.00
             7.8682724   0.068999095584993
             1.8812885    0.31642397975315
             0.5442493    0.74430825237435
 p    1 1.00
             0.1687144                   1

4 0
 s    6 1.00
             3047.5249  0.0018347001629433
             457.36951    0.01403730124668
             103.94869   0.068842606114048
             29.210155    0.23218442062076
              9.286663    0.46794134155879
              3.163927    0.36231203217765
 s    3 1.00
             7.8682724   -0.11933240861517
             1.8812885   -0.16085421161283
             0.5442493     1.1434564825515
 s    1 1.00
             0.1687144                   1
 p    3 1.00
             7.8682724   0.068999095584993
             1.8812885    0.31642397975315
             0.5442493    0.74430825237435
 p    1 1.00
             0.1687144                   1

5 0
 s    6 1.00
             3047.5249  0.0018347001629433
             457.36951    0.01403730124668
             103.94869   0.068842606114048
             29.210155    0.23218442062076
              9.286663    0.46794134155879
              3.163927    0.36231203217765
 s    3 1.00
             7.8682724   -0.11933240861517
             1.8812885   -0.16085421161283
             0.5442493     1.1434564825515
 s    1 1.00
             0.1687144                   1
 p    3 1.00
             7.8682724   0.068999095584993
             1.8812885    0.31642397975315
             0.5442493    0.74430825237435
 p    1 1.00
             0.1687144                   1

6 0
 s    6 1.00
             3047.5249  0.0018347001629433
             457.36951    0.01403730124668
             103.94869   0.068842606114048
             29.210155    0.23218442062076
              9.286663    0.46794134155879
              3.163927    0.36231203217765
 s    3 1.00
             7.8682724   -0.11933240861517
             1.8812885   -0.16085421161283
             0.5442493     1.1434564825515
 s    1 1.00
             0.1687144                   1
 p    3 1.00
             7.8682724   0.068999095584993
             1.8812885    0.31642397975315
             0.5442493    0.74430825237435
 p    1 1.00
             0.1687144                   1

7 0
 s    6 1.00
             3047.5249  0.0018347001629433
             457.36951    0.01403730124668
             103.94869   0.068842606114048
             29.210155    0.23218442062076
              9.286663    0.46794134155879
              3.163927    0.36231203217765
 s    3 1.00
             7.8682724   -0.11933240861517
             1.8812885   -0.16085421161283
             0.5442493     1.1434564825515
 s    1 1.00
             0.1687144                   1
 p    3 1.00
             7.8682724   0.068999095584993
             1.8812885    0.31642397975315
             0.5442493    0.74430825237435
 p    1 1.00
             0.1687144                   1

8 0
 s    6 1.00
             3047.5249  0.0018347001629433
             457.36951    0.01403730124668
             103.94869   0.068842606114048
             29.210155    0.23218442062076
              9.286663    0.46794134155879
              3.163927    0.36231203217765
 s    3 1.00
             7.8682724   -0.11933240861517
             1.8812885   -0.16085421161283
             0.5442493     1.1434564825515
 s    1 1.00
             0.1687144                   1
 p    3 1.00
             7.8682724   0.068999095584993
             1.8812885    0.31642397975315
             0.5442493    0.74430825237435
 p    1 1.00
             0.1687144                   1

9 0
 s    6 1.00
             3047.5249  0.0018347001629433
             457.36951    0.01403730124668
             103.94869   0.068842606114048
             29.210155    0.23218442062076
              9.286663    0.46794134155879
              3.163927    0.36231203217765
 s    3 1.00
             7.8682724   -0.11933240861517
             1.8812885   -0.16085421161283
             0.5442493     1.1434564825515
 s    1 1.00
             0.1687144                   1
 p    3 1.00
             7.8682724   0.068999095584993
             1.8812885    0.31642397975315
             0.5442493    0.74430825237435
 p    1 1.00
             0.1687144                   1

10 0
 s    6 1.00
             3047.5249  0.0018347001629433
             457.36951    0.01403730124668
             103.94869   0.068842606114048
             29.210155    0.23218442062076
              9.286663    0.46794134155879
              3.163927    0.36231203217765
 s    3 1.00
             7.8682724   -0.11933240861517
             1.8812885   -0.16085421161283
             0.5442493     1.1434564825515
 s    1 1.00
             0.1687144                   1
 p    3 1.00
             7.8682724   0.068999095584993
             1.8812885    0.31642397975315
             0.5442493    0.74430825237435
 p    1 1.00
             0.1687144                   1

11 0
 s    6 1.00
             3047.5249  0.0018347001629433
             457.36951    0.01403730124668
             103.94869   0.068842606114048
             29.210155    0.23218442062076
              9.286663    0.46794134155879
              3.163927    0.36231203217765
 s    3 1.00
             7.8682724   -0.11933240861517
             1.8812885   -0.16085421161283
             0.5442493     1.1434564825515
 s    1 1.00
             0.1687144                   1
 p    3 1.00
             7.8682724   0.068999095584993
             1.8812885    0.31642397975315
             0.5442493    0.74430825237435
 p    1 1.00
             0.1687144                   1

12 0
 s    6 1.00
             3047.5249  0.0018347001629433
             457.36951    0.01403730124668
             103.94869   0.068842606114048
             29.210155    0.23218442062076
              9.286663    0.46794134155879
              3.163927    0.36231203217765
 s    3 1.00
             7.8682724   -0.11933240861517
             1.8812885   -0.16085421161283
             0.5442493     1.1434564825515
 s    1 1.00
             0.1687144                   1
 p    3 1.00
             7.8682724   0.068999095584993
             1.8812885    0.31642397975315
             0.5442493    0.74430825237435
 p    1 1.00
             0.1687144                   1

13 0
 s    6 1.00
             3047.5249  0.0018347001629433
             457.36951    0.01403730124668
             103.94869   0.068842606114048
             29.210155    0.23218442062076
              9.286663    0.46794134155879
              3.163927    0.36231203217765
 s    3 1.00
             7.8682724   -0.11933240861517
             1.8812885   -0.16085421161283
             0.5442493     1.1434564825515
 s    1 1.00
             0.1687144                   1
 p    3 1.00
             7.8682724   0.068999095584993
             1.8812885    0.31642397975315
             0.5442493    0.74430825237435
 p    1 1.00
             0.1687144                   1

14 0
 s    6 1.00
             3047.5249  0.0018347001629433
             457.36951    0.01403730124668
             103.94869   0.068842606114048
             29.210155    0.23218442062076
              9.286663    0.46794134155879
              3.163927    0.36231203217765
 s    3 1.00
             7.8682724   -0.11933240861517
             1.8812885   -0.16085421161283
             0.5442493     1.1434564825515
 s    1 1.00
             0.1687144                   1
 p    3 1.00
             7.8682724   0.068999095584993
             1.8812885    0.31642397975315
             0.5442493    0.74430825237435
 p    1 1.00
             0.1687144                   1

15 0
 s    6 1.00
             3047.5249  0.0018347001629433
             457.36951    0.01403730124668
             103.94869   0.068842606114048
             29.210155    0.23218442062076
              9.286663    0.46794134155879
              3.163927    0.36231203217765
 s    3 1.00
             7.8682724   -0.11933240861517
             1.8812885   -0.16085421161283
             0.5442493     1.1434564825515
 s    1 1.00
             0.1687144                   1
 p    3 1.00
             7.8682724   0.068999095584993
             1.8812885    0.31642397975315
             0.5442493    0.74430825237435
 p    1 1.00
             0.1687144                   1

16 0
 s    6 1.00
             3047.5249  0.0018347001629433
             457.36951    0.01403730124668
             103.94869   0.068842606114048
             29.210155    0.23218442062076
              9.286663    0.46794134155879
              3.163927    0.36231203217765
 s    3 1.00
             7.8682724   -0.11933240861517
             1.8812885   -0.16085421161283
             0.5442493     1.1434564825515
 s    1 1.00
             0.1687144                   1
 p    3 1.00
             7.8682724   0.068999095584993
             1.8812885    0.31642397975315
             0.5442493    0.74430825237435
 p    1 1.00
             0.1687144                   1

17 0
 s    6 1.00
             3047.5249  0.0018347001629433
             457.36951    0.01403730124668
             103.94869   0.068842606114048
             29.210155    0.23218442062076
              9.286663    0.46794134155879
              3.163927    0.36231203217765
 s    3 1.00
             7.8682724   -0.11933240861517
             1.8812885   -0.16085421161283
             0.5442493     1.1434564825515
 s    1 1.00
             0.1687144                   1
 p    3 1.00
             7.8682724   0.068999095584993
             1.8812885    0.31642397975315
             0.5442493    0.74430825237435
 p    1 1.00
             0.1687144                   1

18 0
 s    6 1.00
             3047.5249  0.0018347001629433
             457.36951    0.01403730124668
             103.94869   0.068842606114048
             29.210155    0.23218442062076
              9.286663    0.46794134155879
              3.163927    0.36231203217765
 s    3 1.00
             7.8682724   -0.11933240861517
             1.8812885   -0.16085421161283
             0.5442493     1.1434564825515
 s    1 1.00
             0.1687144                   1
 p    3 1.00
             7.8682724   0.068999095584993
             1.8812885    0.31642397975315
             0.5442493    0.74430825237435
 p    1 1.00
             0.1687144                   1

19 0
 s    6 1.00
             3047.5249  0.0018347001629433
             457.36951    0.01403730124668
             103.94869   0.068842606114048
             29.210155    0.23218442062076
              9.286663    0.46794134155879
              3.163927    0.36231203217765
 s    3 1.00
             7.8682724   -0.11933240861517
             1.8812885   -0.16085421161283
             0.5442493     1.1434564825515
 s    1 1.00
             0.1687144                   1
 p    3 1.00
             7.8682724   0.068999095584993
             1.8812885    0.31642397975315
             0.5442493    0.74430825237435
 p    1 1.00
             0.1687144                   1

20 0
 s    6 1.00
             3047.5249  0.0018347001629433
             457.36951    0.01403730124668
             103.94869   0.068842606114048
             29.210155    0.23218442062076
              9.286663    0.46794134155879
              3.163927    0.36231203217765
 s    3 1.00
             7.8682724   -0.11933240861517
             1.8812885   -0.16085421161283
             0.5442493     1.1434564825515
 s    1 1.00
             0.1687144                   1
 p    3 1.00
             7.8682724   0.068999095584993
             1.8812885    0.31642397975315
             0.5442493    0.74430825237435
 p    1 1.00
             0.1687144                   1

21 0
 s    6 1.00
             3047.5249  0.0018347001629433
             457.36951    0.01403730124668
             103.94869   0.068842606114048
             29.210155    0.23218442062076
              9.286663    0.46794134155879
              3.163927    0.36231203217765
 s    3 1.00
             7.8682724   -0.11933240861517
             1.8812885   -0.16085421161283
             0.5442493     1.1434564825515
 s    1 1.00
             0.1687144                   1
 p    3 1.00
             7.8682724   0.068999095584993
             1.8812885    0.31642397975315
             0.5442493    0.74430825237435
 p    1 1.00
             0.1687144                   1

22 0
 s    6 1.00
             3047.5249  0.0018347001629433
             457.36951    0.01403730124668
             103.94869   0.068842606114048
             29.210155    0.23218442062076
              9.286663    0.46794134155879
              3.163927    0.36231203217765
 s    3 1.00
             7.8682724   -0.11933240861517
             1.8812885   -0.16085421161283
             0.5442493     1.1434564825515
 s    1 1.00
             0.1687144                   1
 p    3 1.00
             7.8682724   0.068999095584993
             1.8812885    0.31642397975315
             0.5442493    0.74430825237435
 p    1 1.00
             0.1687144                   1

23 0
 s    6 1.00
             3047.5249  0.0018347001629433
             457.36951    0.01403730124668
             103.94869   0.068842606114048
             29.210155    0.23218442062076
              9.286663    0.46794134155879
              3.163927    0.36231203217765
 s    3 1.00
             7.8682724   -0.11933240861517
             1.8812885   -0.16085421161283
             0.5442493     1.1434564825515
 s    1 1.00
             0.1687144                   1
 p    3 1.00
             7.8682724   0.068999095584993
             1.8812885    0.31642397975315
             0.5442493    0.74430825237435
 p    1 1.00
             0.1687144                   1

24 0
 s    6 1.00
             3047.5249  0.0018347001629433
             457.36951    0.01403730124668
             103.94869   0.068842606114048
             29.210155    0.23218442062076
              9.286663    0.46794134155879
              3.163927    0.36231203217765
 s    3 1.00
             7.8682724   -0.11933240861517
             1.8812885   -0.16085421161283
             0.5442493     1.1434564825515
 s    1 1.00
             0.1687144                   1
 p    3 1.00
             7.8682724   0.068999095584993
             1.8812885    0.31642397975315
             0.5442493    0.74430825237435
 p    1 1.00
             0.1687144                   1

25 0
 s    6 1.00
             5484.6717   0.001831099805527
             825.23495   0.013950098518422
             188.04696    0.06844509273075
               52.9645    0.23271427528445
              16.89757    0.47019295006289
             5.7996353    0.35852086192309
 s    3 1.00
             15.539616   -0.11077750382508
             3.5999336   -0.14802630511126
             1.0137618     1.1307670390447
 s    1 1.00
             0.2700058                   1
 p    3 1.00
             15.539616   0.070874299543311
             3.5999336    0.33975279781076
             1.0137618    0.72715859531445
 p    1 1.00
             0.2700058                   1

26 0
 s    6 1.00
             5484.6717   0.001831099805527
             825.23495   0.013950098518422
             188.04696    0.06844509273075
               52.9645    0.23271427528445
              16.89757    0.47019295006289
             5.7996353    0.35852086192309
 s    3 1.00
             15.539616   -0.11077750382508
             3.5999336   -0.14802630511126
             1.0137618     1.1307670390447
 s    1 1.00
             0.2700058                   1
 p    3 1.00
             15.539616   0.070874299543311
             3.5999336    0.33975279781076
             1.0137618    0.72715859531445
 p    1 1.00
             0.2700058                   1

27 0
 s    6 1.00
             5484.6717   0.001831099805527
             825.23495   0.013950098518422
             188.04696    0.06844509273075
               52.9645    0.23271427528445
              16.89757    0.47019295006289
             5.7996353    0.35852086192309
 s    3 1.00
             15.539616   -0.11077750382508
             3.5999336   -0.14802630511126
             1.0137618     1.1307670390447
 s    1 1.00
             0.2700058                   1
 p    3 1.00
             15.539616   0.070874299543311
             3.5999336    0.33975279781076
             1.0137618    0.72715859531445
 p    1 1.00
             0.2700058                   1

28 0
 s    6 1.00
             5484.6717   0.001831099805527
             825.23495   0.013950098518422
             188.04696    0.06844509273075
               52.9645    0.23271427528445
              16.89757    0.47019295006289
             5.7996353    0.35852086192309
 s    3 1.00
             15.539616   -0.11077750382508
             3.5999336   -0.14802630511126
             1.0137618     1.1307670390447
 s    1 1.00
             0.2700058                   1
 p    3 1.00
             15.539616   0.070874299543311
             3.5999336    0.33975279781076
             1.0137618    0.72715859531445
 p    1 1.00
             0.2700058                   1

29 0
 s    6 1.00
             5484.6717   0.001831099805527
             825.23495   0.013950098518422
             188.04696    0.06844509273075
               52.9645    0.23271427528445
              16.89757    0.47019295006289
             5.7996353    0.35852086192309
 s    3 1.00
             15.539616   -0.11077750382508
             3.5999336   -0.14802630511126
             1.0137618     1.1307670390447
 s    1 1.00
             0.2700058                   1
 p    3 1.00
             15.539616   0.070874299543311
             3.5999336    0.33975279781076
             1.0137618    0.72715859531445
 p    1 1.00
             0.2700058                   1

30 0
 s    6 1.00
             5484.6717   0.001831099805527
             825.23495   0.013950098518422
             188.04696    0.06844509273075
               52.9645    0.23271427528445
              16.89757    0.47019295006289
             5.7996353    0.35852086192309
 s    3 1.00
             15.539616   -0.11077750382508
             3.5999336   -0.14802630511126
             1.0137618     1.1307670390447
 s    1 1.00
             0.2700058                   1
 p    3 1.00
             15.539616   0.070874299543311
             3.5999336    0.33975279781076
             1.0137618    0.72715859531445
 p    1 1.00
             0.2700058                   1

31 0
 s    3 1.00
             18.731137    0.03349459952309
             2.8253937    0.23472694665786
             0.6401217    0.81375731841339
 s    1 1.00
             0.1612778                   1

32 0
 s    3 1.00
             18.731137    0.03349459952309
             2.8253937    0.23472694665786
             0.6401217    0.81375731841339
 s    1 1.00
             0.1612778                   1

33 0
 s    3 1.00
             18.731137    0.03349459952309
             2.8253937    0.23472694665786
             0.6401217    0.81375731841339
 s    1 1.00
             0.1612778                   1

34 0
 s    3 1.00
             18.731137    0.03349459952309
             2.8253937    0.23472694665786
             0.6401217    0.81375731841339
 s    1 1.00
             0.1612778                   1

35 0
 s    3 1.00
             18.731137    0.03349459952309
             2.8253937    0.23472694665786
             0.6401217    0.81375731841339
 s    1 1.00
             0.1612778                   1

36 0
 s    3 1.00
             18.731137    0.03349459952309
             2.8253937    0.23472694665786
             0.6401217    0.81375731841339
 s    1 1.00
             0.1612778                   1

37 0
 s    3 1.00
             18.731137    0.03349459952309
             2.8253937    0.23472694665786
             0.6401217    0.81375731841339
 s    1 1.00
             0.1612778                   1

38 0
 s    3 1.00
             18.731137    0.03349459952309
             2.8253937    0.23472694665786
             0.6401217    0.81375731841339
 s    1 1.00
             0.1612778                   1

[5d]
[7f]
[9g]

[MO]
 Sym= A
 Ene=               0
 Spin= Alpha
 Occup=    1.00000
   1    0.0010665057961497
   2    -0.0017279779528571
   3    -0.010513822367711
   4    -0.004796636608312
   5       0.0452613312794
   6    -3.4916165948539e-11
   7    -0.010357960923188
   8    -0.069367153857768
   9    -2.8186196804071e-11
  10    -0.014457886257945
  11     0.024875789370499
  12      0.13881818030852
  13    -0.063869729288377
  14    0.00054215461962832
  15    -7.1992515925379e-10
  16     -0.13867090563766
  17    -0.053579842064266
  18    -5.208622038426e-10
  19    -0.00065567592947856
  20    0.0013481822367589
  21    -0.0019622949075786
  22    0.0048458117242454
  23    -0.0068122431147001
  24    1.4295467343687e-10
  25    0.0018800999986498
  26     0.040224036069022
  27    1.0049547448175e-10
  28    -0.00079246182339233
  29    0.0012603532337311
  30    0.0083020653369052
  31    -0.0037642017241691
  32     0.037616157354651
  33    -9.1464977239288e-11
  34    -0.0078664110913051
  35    -0.057441433698411
  36    -6.4634744990825e-11
  37    -0.0027468795347086
  38    0.0052745110960858
  39     0.031094445480957
  40     0.016600774524282
  41    0.00063520016603383
  42    1.0224261312158e-09
  43     0.022421398858733
  44     0.016478986976242
  45    7.1401834611651e-10
  46    -0.0017834462282737
  47    0.0032515243610198
  48     0.029350140068322
  49    -0.015101958888712
  50    0.0036105569542565
  51    8.7722018304384e-10
  52    -0.016161267332683
  53    0.0092239616652387
  54    6.0901194778303e-10
  55    0.00043880436492163
  56    -0.00088599462407587
  57    0.0018591171512383
  58    0.0039244986764499
  59    -0.0061856028414251
  60    -2.2804551273655e-10
  61    0.0015852801576023
  62     0.031443828265981
  63    -1.5852609277659e-10
  64     0.017342168623378
  65     -0.02992372595601
  66     -0.16613177967858
  67    -0.076435944426572
  68    0.0010577870982761
  69    7.0531452602622e-10
  70     -0.16618200703434
  71    -0.064753958929118
  72    5.0924006737975e-10
  73     0.002574004114496
  74    -0.0049719702386192
  75      -0.0329267667466
  76    -0.016006186902831
  77    0.0045640907615133
  78    -8.5309989181769e-10
  79    -0.019882022839024
  80     0.015356466695873
  81    -5.9133768274278e-10
  82    0.0013158758760046
  83    0.0069084905963845
  84    -0.074221451639828
  85     0.014940413528515
  86    -0.020183050842446
  87    1.4617282140759e-10
  88      -0.1273684202716
  89     0.081898316577609
  90    1.4481815367136e-10
  91    0.0018843568212589
  92    -0.0034420962970334
  93    -0.026900060142202
  94     0.015941785378096
  95    0.0003312492576059
  96    -1.009548647642e-09
  97     0.018417284643132
  98     0.010630498132191
  99    -7.0546876300432e-10
 100    -6.7966738660755e-05
 101    -0.010665855103779
 102     0.076724790838257
 103     -0.01854859215738
 104    -0.013352645236582
 105    -1.930045307919e-10
 106      0.15102660916711
 107     0.088694053905589
 108    -1.8136083530666e-10
 109    -0.001273864324431
 110    0.0016385707593662
 111     0.016421728508713
 112    -0.0049753436741021
 113    -0.015512445531774
 114    -7.3485651928891e-10
 115     0.046053806592582
 116    -0.017953552780334
 117    -5.1747424600352e-10
 118    -0.019454880648766
 119     0.032678210583573
 120      0.21212121953199
 121     0.092383730459097
 122    -0.0035421945704141
 123    -8.5856894273277e-10
 124      0.18580138519404
 125    -0.063015684520317
 126    -6.3214182890114e-10
 127    -0.0006640231830364
 128    0.0027489584035866
 129    -0.043659010012434
 130    -0.0009723002837758
 131    0.0052517641138173
 132    -7.3746612077416e-11
 133    -0.026192908158399
 134     0.010959196840431
 135    -5.486681050361e-11
 136    0.0016359388123909
 137    -0.0021104849732299
 138    -0.021778221830077
 139    -0.0049545362099891
 140    -0.018589226343735
 141    8.1772995879877e-10
 142      0.05695957431533
 143    -0.022192413117754
 144    5.7894721701959e-10
 145    -0.0017045305430145
 146    -0.0079677144269006
 147      0.09047639326978
 148     0.018336770322629
 149    -0.025018022625575
 150    -1.0324048741099e-10
 151      -0.1518428746114
 152     0.096806584470659
 153    -1.2230223803126e-10
 154    -0.0012522499545977
 155    0.0037723949439167
 156    -0.030567000612236
 157    -0.00050781951405562
 158    0.0031255305395724
 159    3.2068956519445e-11
 160     0.015801891918854
 161    0.0040602174401065
 162    2.8046565750409e-11
 163    -9.2072230443253e-05
 164     0.013429249054305
 165    -0.093961454210808
 166      -0.0222469185096
 167    -0.015479503968333
 168    2.493646871715e-10
 169      0.18322968107448
 170      0.10673641503559
 171    2.1342045419753e-10
 172    0.0012779983302624
 173    -0.0040502596594279
 174     0.037093158908111
 175    -0.0017567474464682
 176     0.003891291006673
 177    6.5373869560355e-11
 178     0.021351372212584
 179    0.0070661606607265
 180    3.8056597002803e-11
 181      0.01608480151516
 182    -0.027067992926217
 183     -0.17393584374713
 184        0.076367475021
 185    -0.0029874464667328
 186    8.4638655955766e-10
 187      0.15313091607616
 188    -0.052273186561584
 189    6.2089789687325e-10
 190    -0.0035736455795351