[Molden Format]
made by pyscf v[2.11.0]
[Atoms] (AU)
O   1   8     0.00000000000000     0.00000000000000     0.22166487441148
H   2   1     0.00000000000000     1.43090062152066    -0.88665949764593
H   3   1     0.00000000000000    -1.43090062152066    -0.88665949764593
[GTO]
1 0
 s    6 1.00
             5484.6717   0.001831099805527
             825.23495   0.013950098518422
             188.04696    0.06844509273075
               52.9645    0.23271427528445
              16.89757    0.47019295006289
             5.7996353    0.35852086192309
 s    3 1.00
             15.539616   -0.11077750382508
             3.5999336   -0.14802630511126
             1.0137618     1.1307670390447
 s    1 1.00
             0.2700058                   1
 p    3 1.00
             15.539616   0.070874299543311
             3.5999336    0.33975279781076
             1.0137618    0.72715859531445
 p    1 1.00
             0.2700058                   1

2 0
 s    3 1.00
             18.731137    0.03349459952309
             2.8253937    0.23472694665786
             0.6401217    0.81375731841339
 s    1 1.00
             0.1612778                   1

3 0
 s    3 1.00
             18.731137    0.03349459952309
             2.8253937    0.23472694665786
             0.6401217    0.81375731841339
 s    1 1.00
             0.1612778                   1

[5d]
[7f]
[9g]

[MO]
 Sym= A
 Ene=               0
 Spin= Alpha
 Occup=    1.00000
   1     0.069059585556517
   2     -0.17839344403068
   3     -0.23324059391155
   4    -2.5037147742661e-13
   5    9.9298496847403e-15
   6     -0.63396432789994
   7    -1.3889340250221e-13
   8    -8.2824885507056e-15
   9     -0.34839853064603
  10      0.14148452433688
  11     0.042655126595724
  12      0.14148452433682
  13     0.042655126595684
 Sym= A
 Ene=               1
 Spin= Alpha
 Occup=    1.00000
   1     1.08300168276e-14
   2    -8.0792462551575e-14
   3    8.6057814635918e-14
   4    3.5144340985299e-13
   5      0.59465201472055
   6    3.7947507951235e-14
   7    1.9507932788089e-13
   8      0.25436614734848
   9    2.7806637099836e-15
  10      0.25029370582548
  11     0.050747653246995
  12      -0.2502937058255
  13    -0.050747653247027
 Sym= A
 Ene=               2
 Spin= Alpha
 Occup=    1.00000
   1      0.20933591189165
   2     -0.52752696136687
   3     -0.47542543127198
   4    7.3310028878977e-13
   5    -3.2637481050724e-14
   6      0.12269482388696
   7    4.0664990093069e-13
   8    -4.1679398988523e-14
   9     0.056984659705141
  10     -0.12075395067668
  11     0.032416441424083
  12     -0.12075395067676
  13     0.032416441424115
 Sym= A
 Ene=               3
 Spin= Alpha
 Occup=    1.00000
   1    -1.9219694811001e-13
   2    4.6689172949753e-13
   3    3.9624109236686e-13
   4      0.73243030119679
   5    -2.8514306755875e-13
   6    -3.396104363894e-13
   7      0.40628364069882
   8    -1.2164980877333e-13
   9    -1.7615356558486e-13
  10    4.9038994964913e-14
  11    -4.2409927235998e-14
  12    2.893781288764e-13
  13    6.7000925111596e-15
 Sym= A
 Ene=               4
 Spin= Alpha
 Occup=    1.00000
   1      0.99794467500454
   2     0.021220746428402
   3    -0.020131527618368
   4    4.6203292844461e-15
   5    -1.8618510199047e-15
   6    -0.00031633118195693
   7    2.5624266582842e-15
   8    -1.0965021552703e-15
   9     0.003694331556722
  10    -0.0016766094453032
  11    0.0035985129241562
  12    -0.0016766094453028
  13    0.0035985129241568
 Sym= A
 Ene=               5
 Spin= Alpha
 Occup=    0.00000
   1    -0.091713434360471
   2      0.28162736412085
   3      0.85506469696935
   4    -1.5929182463049e-15
   5    7.1213377052821e-14
   6     -0.37177434772989
   7    1.901243359263e-15
   8    9.4029342190771e-14
   9     -0.28133548548007
  10     -0.22641605084749
  11     -0.77857843097346
  12     -0.22641605084729
  13     -0.77857843097341
 Sym= A
 Ene=               6
 Spin= Alpha
 Occup=    0.00000
   1    9.9526801172073e-15
   2    6.273965418549e-14
   3    -2.8008299895763e-13
   4    1.9651509001095e-14
   5      0.58822613426764
   6    -1.0923320170428e-15
   7    -2.3970717343691e-14
   8      0.52361711215731
   9    2.977953693032e-14
  10     -0.45411421153895
  11     -0.77576138863472
  12      0.45411421153883
  13      0.77576138863511
 Sym= A
 Ene=               7
 Spin= Alpha
 Occup=    0.00000
   1    -0.033206153008854
   2       0.6307450813463
   3      -1.2303525275058
   4    -7.0001811718613e-13
   5    1.2775490610108e-13
   6     -0.67779354285776
   7    8.4707445028436e-13
   8    -4.0470841185166e-13
   9       0.7186219324281
  10     -0.57068377082475
  11      0.91879021066477
  12     -0.57068377082481
  13      0.91879021066407
 Sym= A
 Ene=               8
 Spin= Alpha
 Occup=    0.00000
   1    -3.6450145880623e-15
   2    -1.5289175640276e-13
   3    6.2520092469512e-13
   4     -0.89419917745945
   5    1.0917987782316e-13
   6    7.5585731534891e-13
   7       1.0821182552665
   8    4.776725828151e-14
   9    -9.0945907848186e-13
  10    -3.041786756598e-13
  11    1.8907760168868e-13
  12    8.9096210555327e-13
  13    -1.4145564410558e-12
 Sym= A
 Ene=               9
 Spin= Alpha
 Occup=    0.00000
   1     0.024275639905472
   2      -1.4354340459158
   3       2.5638054891743
   4    -4.7778027880501e-14
   5    1.5247457106265e-12
   6     0.067334983557926
   7    5.7796007530977e-14
   8    -4.5643660501612e-13
   9     -0.89620803038119
  10     -0.76597571092169
  11     -0.41185943001707
  12     -0.76597571090806
  13     -0.41185943003722
 Sym= A
 Ene=              10
 Spin= Alpha
 Occup=    0.00000
   1     0.074530594163657
   2     -0.69171590167926
   3      0.52112600494295
   4    -3.2764473318054e-13
   5    0.0026265519654728
   6     -0.59625550599689
   7    3.9652029696063e-13
   8    0.0024830749093402
   9       1.0333964419512
  10      0.48979154801611
  11     -0.19104216358068
  12      0.52930660497037
  13     -0.24437073175407
 Sym= A
 Ene=              11
 Spin= Alpha
 Occup=    0.00000
   1    -1.0261771398639e-07
   2    9.5239229240539e-07
   3    -7.1751569017185e-07
   4    1.8588106118014e-14
   5      0.85928121650599
   6    8.2095648504124e-07
   7    -2.2596043752488e-14
   8      -1.8276676316257
   9    -1.4228348735765e-06
  10      0.15698781318597
  11       1.0249112073218
  12     -0.15698921633337
  13      -1.0249106078219
 Sym= A
 Ene=              12
 Spin= Alpha
 Occup=    0.00000
   1    0.0017145683640958
   2    -0.015912850501227
   3     0.011988448143424
   4    -6.2289464961336e-13
   5     -0.11412219264176
   6    -0.013716794275288
   7    7.5378533797325e-13
   8     -0.10804620176769
   9     0.023773174843158
  10      0.87057177628482
  11      -1.1640170785738
  12     -0.84712753205844
  13       1.1540004513826
