[Molden Format]
made by pyscf v[2.11.0]
[Atoms] (AU)
O   1   8     0.00000000000000     0.00000000000000     0.22166487441148
H   2   1     0.00000000000000     1.43090062152066    -0.88665949764593
H   3   1     0.00000000000000    -1.43090062152066    -0.88665949764593
[GTO]
1 0
 s    6 1.00
             5484.6717   0.001831099805527
             825.23495   0.013950098518422
             188.04696    0.06844509273075
               52.9645    0.23271427528445
              16.89757    0.47019295006289
             5.7996353    0.35852086192309
 s    3 1.00
             15.539616   -0.11077750382508
             3.5999336   -0.14802630511126
             1.0137618     1.1307670390447
 s    1 1.00
             0.2700058                   1
 p    3 1.00
             15.539616   0.070874299543311
             3.5999336    0.33975279781076
             1.0137618    0.72715859531445
 p    1 1.00
             0.2700058                   1

2 0
 s    3 1.00
             18.731137    0.03349459952309
             2.8253937    0.23472694665786
             0.6401217    0.81375731841339
 s    1 1.00
             0.1612778                   1

3 0
 s    3 1.00
             18.731137    0.03349459952309
             2.8253937    0.23472694665786
             0.6401217    0.81375731841339
 s    1 1.00
             0.1612778                   1

[5d]
[7f]
[9g]

[MO]
 Sym= A
 Ene=               0
 Spin= Alpha
 Occup=    1.00000
   1      0.12324118362352
   2     -0.39590929776252
   3     -0.42033255977991
   4    -1.6422717091892e-11
   5    6.8391820922361e-14
   6     -0.51193533214376
   7    -9.1097952861658e-12
   8    5.6757563293779e-15
   9     -0.28612779197024
  10     0.072581043249576
  11     0.052505116063956
  12      0.07258104324943
  13     0.052505116063922
 Sym= A
 Ene=               1
 Spin= Alpha
 Occup=    1.00000
   1    2.7959656854547e-12
   2    -9.0295371461886e-12
   3    -9.5483983893198e-12
   4      0.73243030119679
   5    -2.5931247992538e-14
   6    -1.1325798003481e-11
   7      0.40628364069882
   8    -1.0770319159732e-14
   9    -6.3352526697372e-12
  10    1.5498634454086e-12
  11    1.1785829471102e-12
  12    1.571993995787e-12
  13    1.1834506496319e-12
 Sym= A
 Ene=               2
 Spin= Alpha
 Occup=    1.00000
   1     0.072607116454646
   2     -0.39143950157744
   3     -0.31706128192278
   4    -2.8461270558359e-13
   5    0.0049964541429026
   6      0.39322033231662
   7    -1.5787525301346e-13
   8    0.0021372647519229
   9      0.20647943538313
  10     -0.16862505077307
  11     0.009877144681394
  12     -0.17283114439582
  13    0.0090243490428705
 Sym= A
 Ene=               3
 Spin= Alpha
 Occup=    1.00000
   1    -0.0069308333324562
   2    0.0034393953610686
   3     0.003039972672246
   4    3.449079293449e-14
   5      0.59461942367588
   6    -0.0034035530444077
   7    1.9263738807951e-14
   8       0.2543522063237
   9    -0.0018079236095208
  10      0.25179926060337
  11     0.050627404572852
  12       -0.248760715394
  13    -0.050862339276151
 Sym= A
 Ene=               4
 Spin= Alpha
 Occup=    1.00000
   1       1.0119170448131
   2     -0.02404892992663
   3    -0.060160078233937
   4    -2.9546096509072e-15
   5    0.0037141680863858
   6     0.015915109362687
   7    -1.639001225886e-15
   8    0.0015887588091012
   9     0.011674610143207
  10    -0.011993923383194
  11    0.0064093534081788
  12    -0.015120568450865
  13    0.0057754185707202
 Sym= A
 Ene=               5
 Spin= Alpha
 Occup=    0.00000
   1    2.0704770813535e-12
   2    -1.5578085921979e-11
   3    2.9187254285771e-12
   4     -0.89419917745945
   5    -2.9695360362169e-12
   6    -1.4091459713378e-11
   7       1.0821182552665
   8    -3.8175046116734e-12
   9    2.6801629958494e-11
  10    9.1687805382103e-12
  11    1.2640525772118e-11
  12    7.3855953813934e-12
  13    -3.2102660857917e-12
 Sym= A
 Ene=               6
 Spin= Alpha
 Occup=    0.00000
   1      0.07656595449341
   2      -0.6736429644119
   3      0.35721594013418
   4    2.0477888935126e-11
   5    -3.3205275625682e-12
   6     -0.67224585486252
   7    -2.4781379292398e-11
   8    -4.4864329735397e-12
   9       1.1138003005507
  10        0.357105500322
  11     0.012935007292498
  12      0.35710550031873
  13     0.012935007276426
 Sym= A
 Ene=               7
 Spin= Alpha
 Occup=    0.00000
   1    -0.033148904060815
   2    -0.012236296932206
   3       0.6549002957615
   4    -7.0773174963476e-12
   5      0.39036291291971
   6     -0.10827544519171
   7    8.5644913054299e-12
   8      0.53445304470146
   9     -0.16806952373616
  10     -0.13958143137694
  11      -1.5224131196028
  12      0.25907537464876
  13       0.3699546224147
 Sym= A
 Ene=               8
 Spin= Alpha
 Occup=    0.00000
   1    -0.0098685633166021
   2      -0.4559449584278
   3      0.79892994500452
   4    -5.8290506535496e-13
   5      -0.2538560338533
   6     -0.21563632320694
   7    7.0537025601458e-13
   8      0.46990714542417
   9      -0.3120177358949
  10     -0.52376855681783
  11     -0.53404549380117
  12      -1.1864242429282
  13       1.1712686367574
 Sym= A
 Ene=               9
 Spin= Alpha
 Occup=    0.00000
   1     0.073414323502523
   2      -1.2846844254779
   3       1.7063271054192
   4    5.7015349805154e-13
   5      0.13473031870293
   6      0.52956114636827
   7    -6.8998711782953e-13
   8      0.32321491095199
   9      -0.7310660477889
  10     -0.51541905421447
  11     -0.19529677799193
  12      0.37280574890931
  13     -0.44493448792423
 Sym= A
 Ene=              10
 Spin= Alpha
 Occup=    0.00000
   1    -0.051996744760639
   2     -0.38186060496781
   3       1.6050525983775
   4    -7.3312991929676e-14
   5     -0.26375910647556
   6     -0.26220857808188
   7    8.8775092253877e-14
   8       0.1736892291806
   9      -0.4965548604013
  10     -0.73146768556638
  11    -0.067206505398294
  12     -0.13579568335371
  13      -1.3561847957054
 Sym= A
 Ene=              11
 Spin= Alpha
 Occup=    0.00000
   1    -0.012979611697423
   2     -0.11908166275521
   3       0.3142666358097
   4    -1.8138176525563e-13
   5      0.88579724732731
   6     -0.14416266250129
   7    2.1935822239112e-13
   8      -1.5809549905786
   9      -0.1088397865382
  10     -0.39564636166872
  11       1.0591358105568
  12     -0.34844621025006
  13     -0.85555380483397
 Sym= A
 Ene=              12
 Spin= Alpha
 Occup=    0.00000
   1      0.01845752131321
   2      -0.7376353603304
   3       1.5193489938955
   4    -2.6482351485122e-13
   5    -0.090669672978098
   6      0.27884534519749
   7    3.2054180056617e-13
   8     -0.69693379002012
   9     -0.55516250267654
  10      0.90207550539577
  11     -0.94664131289774
  12     -0.55788226811616
  13      -0.6209584759293
