[Molden Format]
made by pyscf v[2.11.0]
[Atoms] (AU)
O   1   8     0.00000000000000     0.00000000000000     0.22166487441148
H   2   1     0.00000000000000     1.43090062152066    -0.88665949764593
H   3   1     0.00000000000000    -1.43090062152066    -0.88665949764593
[GTO]
1 0
 s    6 1.00
             5484.6717   0.001831099805527
             825.23495   0.013950098518422
             188.04696    0.06844509273075
               52.9645    0.23271427528445
              16.89757    0.47019295006289
             5.7996353    0.35852086192309
 s    3 1.00
             15.539616   -0.11077750382508
             3.5999336   -0.14802630511126
             1.0137618     1.1307670390447
 s    1 1.00
             0.2700058                   1
 p    3 1.00
             15.539616   0.070874299543311
             3.5999336    0.33975279781076
             1.0137618    0.72715859531445
 p    1 1.00
             0.2700058                   1

2 0
 s    3 1.00
             18.731137    0.03349459952309
             2.8253937    0.23472694665786
             0.6401217    0.81375731841339
 s    1 1.00
             0.1612778                   1

3 0
 s    3 1.00
             18.731137    0.03349459952309
             2.8253937    0.23472694665786
             0.6401217    0.81375731841339
 s    1 1.00
             0.1612778                   1

[5d]
[7f]
[9g]

[MO]
 Sym= A
 Ene=               0
 Spin= Alpha
 Occup=    1.00000
   1     0.082959288952732
   2     -0.20524836701521
   3     -0.27547111184787
   4    -2.1297612117566e-16
   5    -4.3331539839421e-14
   6     -0.61178763551564
   7    -1.3071210938016e-16
   8    -3.5428897529776e-14
   9     -0.35465779299973
  10      0.13584752480046
  11     0.047719017457426
  12      0.13584752480044
  13     0.047719017457438
 Sym= A
 Ene=               1
 Spin= Alpha
 Occup=    1.00000
   1     -0.17378522535324
   2     -0.46894015039076
   3     -0.41795386725781
   4    4.6041377636527e-17
   5    -1.6876437193861e-13
   6       0.1430700173215
   7    2.3566210346357e-18
   8    -9.7677073756527e-14
   9     0.061530761952609
  10     -0.13704512441719
  11       0.0204879916245
  12     -0.13704512441713
  13     0.020487991624564
 Sym= A
 Ene=               2
 Spin= Alpha
 Occup=    1.00000
   1      0.10462363400419
   2    -0.016681532244556
   3     -0.01903494704985
   4    -1.0253644940263e-16
   5      0.57123586068341
   6     0.005807052189327
   7    -2.366784556492e-16
   8      0.24730012565548
   9     0.002915137005718
  10      0.25707826743542
  11     0.063638234590821
  12     -0.26859558132379
  13    -0.061244364218097
 Sym= A
 Ene=               3
 Spin= Alpha
 Occup=    1.00000
   1      0.99755332239894
   2       -0.159053143885
   3     -0.18149221112379
   4    2.9530429438224e-17
   5    -0.059911355389517
   6     0.055368409441416
   7    2.5867207847116e-17
   8    -0.025936897060871
   9     0.027794911092486
  10    -0.082473376329472
  11    0.0048635405494836
  12    -0.027340575783148
  13     0.017961257752081
 Sym= A
 Ene=               4
 Spin= Alpha
 Occup=    1.00000
   1    -1.0223348418176e-14
   2    3.4500044187087e-14
   3    8.4260831255923e-14
   4      -0.6897026868653
   5    -1.7015280420167e-14
   6    -3.5853943422912e-14
   7     -0.45656924655943
   8    -1.0401630958034e-14
   9    -3.3008350343842e-14
  10    -1.4423729962318e-14
  11    -5.8432263922399e-14
  12    -3.2929351578777e-14
  13    -1.0013800216741e-13
 Sym= A
 Ene=               5
 Spin= Alpha
 Occup=    0.00000
   1    5.9118616223503e-13
   2    -5.4846135113745e-12
   3    3.6069501190965e-12
   4      -0.9275540516925
   5    -5.6239257317254e-12
   6    1.1169469874383e-12
   7        1.061880802245
   8    -6.1645541228597e-12
   9    1.0206673386069e-12
  10    7.7252803262215e-12
  11    6.145181786872e-12
  12    -3.7958581943868e-12
  13    -6.1486163036996e-12
 Sym= A
 Ene=               6
 Spin= Alpha
 Occup=    0.00000
   1    -0.083176553099847
   2      0.28144810181825
   3      0.69984267200071
   4    -6.4121467481868e-12
   5      0.18208522813801
   6     -0.32618369478835
   7    7.4374189096701e-12
   8      0.35728299103509
   9     -0.22662076951488
  10     -0.21065058978186
  11      -1.3249356434331
  12     -0.11014757323207
  13    -0.035906481619081
 Sym= A
 Ene=               7
 Spin= Alpha
 Occup=    0.00000
   1    -0.0003654967841966
   2     -0.30697260643754
   3      0.77884795191482
   4    7.572280887421e-12
   5     -0.52129799316481
   6    -0.098149868711323
   7    -8.6125795194056e-12
   8      -0.4393854662214
   9    -0.057156328251305
  10      0.88454491648986
  11     -0.49817424391902
  12      -0.6791347622882
  13     -0.43509178901531
 Sym= A
 Ene=               8
 Spin= Alpha
 Occup=    0.00000
   1     -0.01275076479652
   2      0.07026722126146
   3     -0.30981512939682
   4    5.2678160508021e-14
   5    -0.050698698302789
   6     -0.79307126612761
   7    -5.1670787864616e-14
   8    -0.072742398857595
   9      0.67995878041246
  10     -0.53359513359853
  11       0.6903370787937
  12     -0.67559417466801
  13      0.59819983851666
 Sym= A
 Ene=               9
 Spin= Alpha
 Occup=    0.00000
   1     0.044877689912594
   2     -0.18168378188943
   3     -0.29758731803209
   4    -1.3652843574266e-12
   5      0.11590496682107
   6     0.089226295858597
   7    1.4949897888957e-12
   8      0.25395494544305
   9      0.20683126854964
  10      0.59826468652111
  11      -1.0188773682224
  12     -0.36804485173162
  13       1.6311982245852
 Sym= A
 Ene=              10
 Spin= Alpha
 Occup=    0.00000
   1     0.076827777309848
   2     -0.44153885748364
   3     0.054505430319706
   4    6.1603792526993e-13
   5     0.094091238930539
   6     -0.44073565600518
   7    -7.1960203160043e-13
   8      0.12152493990747
   9        1.055522501954
  10      0.52151052346031
  11     -0.12116558511778
  12      0.98352863581587
  13     -0.32523453966392
 Sym= A
 Ene=              11
 Spin= Alpha
 Occup=    0.00000
   1    -0.0017757423401998
   2    -0.022519881915967
   3     0.086748224571115
   4    -6.1105134973371e-14
   5      0.88622933681362
   6    -0.015916016362449
   7    7.1067243581263e-14
   8      -1.7924113824585
   9    -0.010036483740747
  10      0.19140268333745
  11      0.84268182329827
  12     -0.17910772830762
  13     -0.95756619758556
 Sym= A
 Ene=              12
 Spin= Alpha
 Occup=    0.00000
   1     0.044747927626826
   2      -1.6224808900704
   3       2.7919989708083
   4    5.6421737193075e-13
   5     0.077134047477335
   6      0.17181849196549
   7    -6.543774699852e-13
   8      0.10532754554056
   9     -0.88743851496983
  10     -0.63355740506466
  11     -0.64749953667105
  12     -0.33880940070282
  13     -0.65605064680212
