[Molden Format]
made by pyscf v[2.11.0]
[Atoms] (AU)
O   1   8     0.00000000000000     0.00000000000000     0.22166487441148
H   2   1     0.00000000000000     1.43090062152066    -0.88665949764593
H   3   1     0.00000000000000    -1.43090062152066    -0.88665949764593
[GTO]
1 0
 s    6 1.00
             5484.6717   0.001831099805527
             825.23495   0.013950098518422
             188.04696    0.06844509273075
               52.9645    0.23271427528445
              16.89757    0.47019295006289
             5.7996353    0.35852086192309
 s    3 1.00
             15.539616   -0.11077750382508
             3.5999336   -0.14802630511126
             1.0137618     1.1307670390447
 s    1 1.00
             0.2700058                   1
 p    3 1.00
             15.539616   0.070874299543311
             3.5999336    0.33975279781076
             1.0137618    0.72715859531445
 p    1 1.00
             0.2700058                   1

2 0
 s    3 1.00
             18.731137    0.03349459952309
             2.8253937    0.23472694665786
             0.6401217    0.81375731841339
 s    1 1.00
             0.1612778                   1

3 0
 s    3 1.00
             18.731137    0.03349459952309
             2.8253937    0.23472694665786
             0.6401217    0.81375731841339
 s    1 1.00
             0.1612778                   1

[5d]
[7f]
[9g]

[MO]
 Sym= A
 Ene=               0
 Spin= Alpha
 Occup=    1.00000
   1    2.3524463029298e-14
   2    -1.2434317886776e-13
   3    2.2857435426332e-14
   4    -1.050573797598e-16
   5      0.57436902687673
   6    -2.0804019163007e-13
   7    -2.3808554152698e-16
   8      0.24865653978603
   9    -1.3904088851272e-13
  10      0.26427855615122
  11     0.062783783099593
  12     -0.26427855615112
  13    -0.062783783099598
 Sym= A
 Ene=               1
 Spin= Alpha
 Occup=    1.00000
   1      0.10332375415069
   2     -0.25664142932484
   3     -0.32226955526861
   4    -2.0650057925247e-16
   5    -2.0492814868032e-13
   6     -0.59203733010678
   7    -1.2970072575919e-16
   8    -1.0810703401461e-13
   9     -0.34549463678096
  10      0.11940055471203
  11     0.049915769024531
  12      0.11940055471214
  13     0.049915769024581
 Sym= A
 Ene=               2
 Spin= Alpha
 Occup=    1.00000
   1      0.24824156965821
   2     -0.46848693214505
   3     -0.42424558384241
   4    7.1920498971883e-17
   5    3.3111824684526e-14
   6      0.21721576227121
   7    1.6407491706812e-17
   8    -1.0232327801521e-14
   9      0.10477019107873
  10     -0.16115602527915
  11     0.018216454094069
  12     -0.16115602527928
  13     0.018216454094091
 Sym= A
 Ene=               3
 Spin= Alpha
 Occup=    1.00000
   1      0.98531345718906
   2     0.047572093416948
   3    0.0054349667373345
   4    -3.5079792818281e-18
   5    -1.8236565712306e-15
   6    -0.012713607920563
   7    -8.965940211244e-19
   8    3.4636002730139e-16
   9    -0.0024295936342018
  10    0.0074898144852422
  11    0.0022615788848131
  12    0.0074898144852482
  13    0.0022615788848122
 Sym= A
 Ene=               4
 Spin= Alpha
 Occup=    1.00000
   1    -2.6579752535141e-15
   2    6.3237377102201e-15
   3    2.9611483576042e-14
   4      -0.6880077539194
   5    -7.5705493087429e-15
   6    -1.0614402648414e-14
   7     -0.45850755903953
   8    -5.2476257885706e-15
   9    -7.7104042293631e-15
  10    -1.5523437544632e-16
  11    -1.5067627113145e-14
  12    -5.8891537906675e-15
  13    -3.8951531269209e-14
 Sym= A
 Ene=               5
 Spin= Alpha
 Occup=    0.00000
   1    -0.095176986765777
   2      0.29471175809757
   3       0.8376734825091
   4      0.10462078966537
   5     0.013095715127483
   6     -0.38561096558519
   7     -0.11951547019721
   8      0.07801851183506
   9     -0.27321507333912
  10     -0.18452106071222
  11     -0.95873489548966
  12     -0.28434545118116
  13     -0.54200991511813
 Sym= A
 Ene=               6
 Spin= Alpha
 Occup=    0.00000
   1     0.011137920639064
   2      0.25062363352735
   3     -0.64123139837193
   4      0.16036138717231
   5       0.4242151044441
   6    -0.017406166877123
   7     -0.18319175998083
   8      0.79444461774038
   9      0.32877970235668
  10     -0.19909782176781
  11     -0.70605347401574
  12      0.75940445469966
  13      0.95867454124515
 Sym= A
 Ene=               7
 Spin= Alpha
 Occup=    0.00000
   1        0.007875890265
   2    -0.087767716703448
   3     -0.16535611028905
   4      0.23117184621035
   5     -0.46015542837519
   6     -0.43339030814697
   7     -0.26408338136777
   8      0.69459228197479
   9      0.41148754670353
  10     0.058629116432967
  11     -0.58570888588301
  12     -0.83891814771353
  13       1.5708433476623
 Sym= A
 Ene=               8
 Spin= Alpha
 Occup=    0.00000
   1     -0.01177448173289
   2       0.1866330622807
   3     -0.46702968743421
   4    -0.042324543036066
   5      0.19581669835372
   6     -0.62105002648837
   7     0.048350214885769
   8     -0.12698344641079
   9      0.61892601181893
  10     -0.93470807064228
  11       1.3781682462956
  12      0.19423277515945
  13     -0.35856006137456
 Sym= A
 Ene=               9
 Spin= Alpha
 Occup=    0.00000
   1    -0.0071096695845424
   2    0.0077995170455501
   3     0.043692613598085
   4     -0.87581954874987
   5    -0.00091161835884564
   6     -0.12380576565391
   7       1.0005084602361
   8      0.26892688608148
   9     0.057275755089719
  10    -0.030044426914168
  11     -0.45535012890584
  12      -0.1808510908008
  13      0.52605537044211
 Sym= A
 Ene=              10
 Spin= Alpha
 Occup=    0.00000
   1     0.074171049628238
   2     -0.50460356211113
   3       0.2473846484078
   4     -0.02391600255618
   5    -0.059398454823694
   6      -0.4440359538169
   7     0.027320882397119
   8     -0.15114999404188
   9      0.99689152881495
  10      0.86676467035905
  11     -0.24618390584939
  12      0.62825416408161
  13     -0.40915202441704
 Sym= A
 Ene=              11
 Spin= Alpha
 Occup=    0.00000
   1    0.0027184446953156
   2    -0.065091223901416
   3     0.011844134363798
   4     0.048868153373823
   5      0.82282394289859
   6      -0.1310904686126
   7    -0.055825427688182
   8       -1.536094018334
   9     0.094540682666177
  10      0.22067160149325
  11      0.46389158802264
  12     -0.54434684977805
  13     -0.14317678373261
 Sym= A
 Ene=              12
 Spin= Alpha
 Occup=    0.00000
   1     0.045392038759535
   2      -1.6087805591917
   3       2.7685915985254
   4     0.027903736537967
   5      0.10164058529327
   6      0.15737154718067
   7    -0.031876343155718
   8      0.19629280360543
   9     -0.84875048484868
  10     -0.65403122907796
  11     -0.72050359594483
  12     -0.23803273988102
  13     -0.62351650083957
