[Molden Format]
made by pyscf v[2.11.0]
[Atoms] (AU)
O   1   8     0.00000000000000     0.00000000000000     0.22166487441148
H   2   1     0.00000000000000     1.43090062152066    -0.88665949764593
H   3   1     0.00000000000000    -1.43090062152066    -0.88665949764593
[GTO]
1 0
 s    6 1.00
             5484.6717   0.001831099805527
             825.23495   0.013950098518422
             188.04696    0.06844509273075
               52.9645    0.23271427528445
              16.89757    0.47019295006289
             5.7996353    0.35852086192309
 s    3 1.00
             15.539616   -0.11077750382508
             3.5999336   -0.14802630511126
             1.0137618     1.1307670390447
 s    1 1.00
             0.2700058                   1
 p    3 1.00
             15.539616   0.070874299543311
             3.5999336    0.33975279781076
             1.0137618    0.72715859531445
 p    1 1.00
             0.2700058                   1

2 0
 s    3 1.00
             18.731137    0.03349459952309
             2.8253937    0.23472694665786
             0.6401217    0.81375731841339
 s    1 1.00
             0.1612778                   1

3 0
 s    3 1.00
             18.731137    0.03349459952309
             2.8253937    0.23472694665786
             0.6401217    0.81375731841339
 s    1 1.00
             0.1612778                   1

[5d]
[7f]
[9g]

[MO]
 Sym= A
 Ene=               0
 Spin= Alpha
 Occup=    1.00000
   1     0.082959288952746
   2     -0.20524836701524
   3      -0.2754711118479
   4    -2.1297612117563e-16
   5    -2.0984475519779e-13
   6     -0.61178763551563
   7    -1.3071210938009e-16
   8    -1.0751600185155e-13
   9     -0.35465779299972
  10      0.13584752480038
  11      0.04771901745741
  12       0.1358475248005
  13     0.047719017457458
 Sym= A
 Ene=               1
 Spin= Alpha
 Occup=    1.00000
   1     -0.17378522535338
   2     -0.46894015039073
   3     -0.41795386725777
   4    4.6041377636183e-17
   5    1.7706242096963e-12
   6      0.14307001732153
   7    2.3566210338395e-18
   8    7.4192539685751e-13
   9     0.061530761952626
  10      -0.1370451244163
  11     0.020487991624707
  12     -0.13704512441803
  13     0.020487991624347
 Sym= A
 Ene=               2
 Spin= Alpha
 Occup=    1.00000
   1    -0.042067861729316
   2    0.0067074366008587
   3     0.007653715417983
   4    -1.0574814305265e-16
   5      0.57386363335813
   6    -0.0023349434470647
   7    -2.3791960813554e-16
   8      0.24843774420744
   9    -0.0011721403264435
  10      0.26636149891226
  11     0.062247266221035
  12     -0.26173053027059
  13    -0.063209811718636
 Sym= A
 Ene=               3
 Spin= Alpha
 Occup=    1.00000
   1       1.0021422208603
   2     -0.15978481277015
   3     -0.18232710316382
   4    1.4251314320629e-17
   5      0.02408961071333
   6     0.055623112626899
   7    -8.9478419157183e-18
   8     0.010428903656828
   9     0.027922771951534
  10    -0.044075449949622
  11     0.014098112515993
  12    -0.066243663205105
  13     0.008831683362595
 Sym= A
 Ene=               4
 Spin= Alpha
 Occup=    1.00000
   1    -6.5475586500042e-15
   2    1.2525889162607e-14
   3    8.0769324612601e-14
   4     -0.68970268686534
   5    2.3294842142936e-15
   6    -1.8978221372786e-14
   7     -0.45656924655939
   8    -1.1706030350798e-14
   9    -2.9507704182204e-14
  10    -1.3155132177047e-14
  11    -4.8980699093075e-14
  12    -1.9201962993134e-15
  13    -9.2342632654334e-14
 Sym= A
 Ene=               5
 Spin= Alpha
 Occup=    0.00000
   1    2.609081365024e-13
   2    1.6620997893028e-12
   3    -8.0569065038834e-12
   4     -0.92755405169248
   5    -1.1017417281944e-12
   6    -1.5831771716228e-13
   7        1.061880802245
   8    1.8720021235492e-13
   9    3.6495902009515e-12
  10    1.0242220448116e-12
  11    5.7009160295164e-12
  12    8.0647054833959e-13
  13    3.5810321518923e-12
 Sym= A
 Ene=               6
 Spin= Alpha
 Occup=    0.00000
   1    -0.078518809814896
   2      0.42438890368245
   3      0.36409776761615
   4    -1.627592927769e-12
   5     -0.31908778944333
   6       -0.134213688855
   7    1.9394712279102e-12
   8     -0.43261712965174
   9     -0.28324844401906
  10      0.22024353789121
  11      -0.0185548111969
  12     -0.26943984006537
  13      -1.2196996527745
 Sym= A
 Ene=               7
 Spin= Alpha
 Occup=    0.00000
   1    0.0055142199611712
   2     -0.77140274252539
   3       1.6452154681744
   4    -2.3574896434008e-12
   5      0.22502920194415
   6     -0.16904351664326
   7    2.7236298325202e-12
   8     -0.27028861802794
   9     -0.25787044912684
  10      0.40643374769429
  11      -1.4923924805467
  12     -0.65987656416718
  13      0.20870498012786
 Sym= A
 Ene=               8
 Spin= Alpha
 Occup=    0.00000
   1    -0.022364120675902
   2      0.13110087180199
   3     -0.29071866483733
   4    9.552952790076e-13
   5    -0.061250146236837
   6     -0.81259916667837
   7    -1.0946286036882e-12
   8    -0.079197303237781
   9      0.65227776492598
  10     -0.59102295907374
  11       0.7361964836808
  12     -0.64065232474252
  13      0.44032121864881
 Sym= A
 Ene=               9
 Spin= Alpha
 Occup=    0.00000
   1     0.059337160794358
   2     -0.29416424807669
   3     -0.28051167282211
   4    2.2180982100437e-12
   5     -0.32836711467562
   6      0.19571579156085
   7    -2.5895668285332e-12
   8     -0.71597690537702
   9      0.14663466941003
  10      0.80777423639928
  11      0.61299237653718
  12     -0.57614859980449
  13      0.14679723586969
 Sym= A
 Ene=              10
 Spin= Alpha
 Occup=    0.00000
   1     0.073131547520474
   2      -0.3678792394588
   3    -0.038225326239145
   4    5.9798336742474e-13
   5    -0.040881148631996
   6     -0.43643058197031
   7    -6.7923724573076e-13
   8     0.043510433360133
   9       1.0694823944828
  10      0.61360904598663
  11     0.056938637385737
  12      0.95018385031475
  13     -0.51095645109642
 Sym= A
 Ene=              11
 Spin= Alpha
 Occup=    0.00000
   1    -0.0016333944021479
   2     0.072891419136625
   3     -0.13675666830488
   4    -3.0424684408826e-13
   5      0.91974729046538
   6     0.012625064925279
   7    3.5504905252235e-13
   8      -1.6865396047005
   9     0.018102215358602
  10    -0.080996392693458
  11       1.2301864896401
  12      0.10216510478141
  13      -1.1375419454532
 Sym= A
 Ene=              12
 Spin= Alpha
 Occup=    0.00000
   1     0.037888591965154
   2      -1.4211837215898
   3       2.4625216851304
   4    -8.3866168661996e-13
   5    -0.097355837699534
   6      0.20281333793666
   7    9.6777121479495e-13
   8     0.060649860187295
   9     -0.85070993644261
  10     -0.76214273036373
  11     0.020796482695781
  12     -0.12544482907819
  13      -1.1664572115419
