[Molden Format]
made by pyscf v[2.11.0]
[Atoms] (AU)
O   1   8     0.00000000000000     0.00000000000000     0.22166487441148
H   2   1     0.00000000000000     1.43090062152066    -0.88665949764593
H   3   1     0.00000000000000    -1.43090062152066    -0.88665949764593
[GTO]
1 0
 s    6 1.00
             5484.6717   0.001831099805527
             825.23495   0.013950098518422
             188.04696    0.06844509273075
               52.9645    0.23271427528445
              16.89757    0.47019295006289
             5.7996353    0.35852086192309
 s    3 1.00
             15.539616   -0.11077750382508
             3.5999336   -0.14802630511126
             1.0137618     1.1307670390447
 s    1 1.00
             0.2700058                   1
 p    3 1.00
             15.539616   0.070874299543311
             3.5999336    0.33975279781076
             1.0137618    0.72715859531445
 p    1 1.00
             0.2700058                   1

2 0
 s    3 1.00
             18.731137    0.03349459952309
             2.8253937    0.23472694665786
             0.6401217    0.81375731841339
 s    1 1.00
             0.1612778                   1

3 0
 s    3 1.00
             18.731137    0.03349459952309
             2.8253937    0.23472694665786
             0.6401217    0.81375731841339
 s    1 1.00
             0.1612778                   1

[5d]
[7f]
[9g]

[MO]
 Sym= A
 Ene=               0
 Spin= Alpha
 Occup=    1.00000
   1    -6.4934526223252e-15
   2    1.5048581533121e-14
   3    1.9138465726603e-14
   4      0.73243030119679
   5    -1.5480157715036e-13
   6    4.8262452947291e-14
   7      0.40628364069882
   8    -6.5895414717494e-14
   9    2.6600497435583e-14
  10    -7.5887110355767e-14
  11    -1.6760303369351e-14
  12    5.4728508459279e-14
  13    1.0103008739762e-14
 Sym= A
 Ene=               1
 Spin= Alpha
 Occup=    1.00000
   1    4.6249156098437e-14
   2    -2.0313114040636e-13
   3    -2.1991913303752e-14
   4    1.9053644035167e-13
   5      0.59465201472055
   6    8.2116207430327e-14
   7    1.0582323173633e-13
   8      0.25436614734848
   9    2.4504395454977e-14
  10      0.25029370582545
  11     0.050747653247002
  12     -0.25029370582554
  13    -0.050747653247021
 Sym= A
 Ene=               2
 Spin= Alpha
 Occup=    1.00000
   1     0.091963432348729
   2     -0.23641489808961
   3     -0.28506951683907
   4    5.6085644568623e-14
   5    4.0553857021232e-15
   6     -0.61621146152256
   7    3.1099732162739e-14
   8    -1.3823935980651e-14
   9     -0.33981365716356
  10      0.12705446029075
  11     0.046020080318895
  12      0.12705446029069
  13     0.046020080318859
 Sym= A
 Ene=               3
 Spin= Alpha
 Occup=    1.00000
   1      0.21351332426246
   2     -0.50387458449943
   3     -0.44650692472913
   4    -4.4781779937288e-15
   5    -1.7647061841265e-13
   6      0.19297553732406
   7    -2.4882220813847e-15
   8    -1.0162708082736e-13
   9     0.095725946994471
  10      -0.1358651587813
  11      0.02747527300668
  12     -0.13586515878125
  13     0.027475273006741
 Sym= A
 Ene=               4
 Spin= Alpha
 Occup=    1.00000
   1      0.99520807483044
   2     0.027886107255699
   3    -0.014238345784642
   4    5.424277820092e-16
   5    8.2659230665737e-15
   6    -0.0029606766804522
   7    3.0044294605286e-16
   8    3.580957458646e-15
   9    0.0023784786756334
  10    0.00014491261563179
  11    0.0032398110151323
  12    0.00014491261562495
  13    0.0032398110151308
 Sym= A
 Ene=               5
 Spin= Alpha
 Occup=    0.00000
   1    -4.1950342531342e-14
   2    2.8194966995306e-13
   3    1.3169836888078e-13
   4    -5.9576305992985e-14
   5      0.65038100178673
   6    -2.4411696077933e-13
   7    7.1899394261102e-14
   8      0.37494224228565
   9    -2.0810925816756e-14
  10     -0.41514034138762
  11     -0.72623890864448
  12      0.41514034138753
  13      0.72623890864381
 Sym= A
 Ene=               6
 Spin= Alpha
 Occup=    0.00000
   1    -2.3809558189685e-14
   2    -2.9137658830393e-13
   3    1.0326915190915e-12
   4     -0.89419917745945
   5    -1.5071646107945e-13
   6    -9.6346511895954e-14
   7       1.0821182552665
   8    1.8147775607153e-13
   9    -3.1564591690373e-13
  10    -7.2240762011852e-14
  11    -6.9145968182683e-13
  12    -2.4755819267335e-13
  13    -3.1983546671946e-13
 Sym= A
 Ene=               7
 Spin= Alpha
 Occup=    0.00000
   1    -0.089447384580009
   2      0.24679972232565
   3      0.93272553603086
   4    3.5949055503033e-13
   5     0.021426856675724
   6     -0.29035689070297
   7    -4.3506209934619e-13
   8    -0.055833166420127
   9     -0.36021456434002
  10       -0.147137989971
  11      -0.8445621588463
  12     -0.18520329706696
  13     -0.87214132772777
 Sym= A
 Ene=               8
 Spin= Alpha
 Occup=    0.00000
   1     0.036982012199398
   2       -0.688990595553
   3       1.0815389441728
   4    -4.6426016688821e-14
   5      0.58794629741195
   6      0.21827278980646
   7    5.6156974249384e-14
   8      -1.1029182947699
   9      -0.2851886521287
  10     -0.18531521203987
  11      0.86699990690749
  12      0.59305014215958
  13      -1.8288583684277
 Sym= A
 Ene=               9
 Spin= Alpha
 Occup=    0.00000
   1     0.059236323512931
   2     -0.79797381261636
   3      0.90574330620929
   4    9.5284577327386e-14
   5       0.1485766436066
   6     -0.41509643584002
   7    -1.1532797857005e-13
   8     -0.59481407517256
   9       0.5627754303569
  10      0.78730423625137
  11     -0.61733124075018
  12     -0.35875258895926
  13      0.12978272569142
 Sym= A
 Ene=              10
 Spin= Alpha
 Occup=    0.00000
   1     0.029606020796826
   2      0.12501674036765
   3     -0.64814446147308
   4    -2.4673610649373e-14
   5     -0.26233289192872
   6     -0.58923525495832
   7    2.9903314376172e-14
   8      0.81884312951055
   9       1.0960735074622
  10     -0.10365399979214
  11      0.28630607328774
  12      0.93698293763333
  13     0.012729153537243
 Sym= A
 Ene=              11
 Spin= Alpha
 Occup=    0.00000
   1     -0.04176017928577
   2      0.64387804887176
   3      -1.0764408009617
   4    -1.2598467241155e-13
   5      0.42878361205309
   6     -0.54705197481326
   7    1.5236816228285e-13
   8     -0.93479403505375
   9      0.51270853673613
  10     -0.53443404838676
  11        1.435893267507
  12     -0.52089604564892
  13     0.059277377948714
 Sym= A
 Ene=              12
 Spin= Alpha
 Occup=    0.00000
   1     0.012774335383202
   2      -1.1890163417604
   3       2.1565776612953
   4    1.8573223382613e-13
   5     -0.23134521869521
   6     -0.08452098336699
   7    -2.247678950334e-13
   8      0.60658755675544
   9     -0.68933219776574
  10      -1.0236084064463
  11      -0.3826409043877
  12      -0.5966535691567
  13     -0.10185196341161
