[Molden Format]
made by pyscf v[2.11.0]
[Atoms] (AU)
O   1   8     0.00000000000000     0.00000000000000     0.22166487441148
H   2   1     0.00000000000000     1.43090062152066    -0.88665949764593
H   3   1     0.00000000000000    -1.43090062152066    -0.88665949764593
[GTO]
1 0
 s    6 1.00
             5484.6717   0.001831099805527
             825.23495   0.013950098518422
             188.04696    0.06844509273075
               52.9645    0.23271427528445
              16.89757    0.47019295006289
             5.7996353    0.35852086192309
 s    3 1.00
             15.539616   -0.11077750382508
             3.5999336   -0.14802630511126
             1.0137618     1.1307670390447
 s    1 1.00
             0.2700058                   1
 p    3 1.00
             15.539616   0.070874299543311
             3.5999336    0.33975279781076
             1.0137618    0.72715859531445
 p    1 1.00
             0.2700058                   1

2 0
 s    3 1.00
             18.731137    0.03349459952309
             2.8253937    0.23472694665786
             0.6401217    0.81375731841339
 s    1 1.00
             0.1612778                   1

3 0
 s    3 1.00
             18.731137    0.03349459952309
             2.8253937    0.23472694665786
             0.6401217    0.81375731841339
 s    1 1.00
             0.1612778                   1

[5d]
[7f]
[9g]

[MO]
 Sym= A
 Ene=               0
 Spin= Alpha
 Occup=    1.00000
   1       0.1232411836235
   2     -0.39590929776243
   3     -0.42033255977983
   4    -5.9190840839914e-12
   5    -7.7706134519012e-14
   6     -0.51193533214385
   7    -3.2833647684207e-12
   8    -5.6818564956274e-14
   9     -0.28612779197029
  10     0.072581043249553
  11     0.052505116063941
  12      0.07258104324953
  13     0.052505116063932
 Sym= A
 Ene=               1
 Spin= Alpha
 Occup=    1.00000
   1    9.5499828528785e-13
   2    -3.2429135478493e-12
   3    -3.4300758907851e-12
   4      0.73243030119679
   5    2.1325789264721e-13
   6    -4.0932666126784e-12
   7      0.40628364069882
   8    9.1544343342375e-14
   9    -2.2893790184001e-12
  10    6.5736021219779e-13
  11    4.4310730618459e-13
  12    4.7813758484694e-13
  13    4.0715016570885e-13
 Sym= A
 Ene=               2
 Spin= Alpha
 Occup=    1.00000
   1    -0.027531271126742
   2     0.070931696268634
   3     0.058034250216459
   4    -2.4369581559773e-13
   5      0.58484254822773
   6    -0.071136781848995
   7    -1.3505027038574e-13
   8      0.25017008622777
   9    -0.037401158102536
  10      0.27714577923027
  11      0.04811932672078
  12     -0.21518386935969
  13    -0.051701698372388
 Sym= A
 Ene=               3
 Spin= Alpha
 Occup=    1.00000
   1      0.11283913318893
   2     -0.38565677030215
   3     -0.31404520630045
   4    -1.2797114415296e-13
   5      0.10749269972687
   6      0.38707332915379
   7    -7.0962579752968e-14
   8     0.045980679827429
   9       0.2033876712488
  10     -0.12308720418329
  11     0.018710543460715
  12     -0.21357624818827
  13    0.00036367128245148
 Sym= A
 Ene=               4
 Spin= Alpha
 Occup=    1.00000
   1       1.0078716657021
   2    -0.0072535405769215
   3    -0.046518460239573
   4    3.7439090194917e-14
   5    0.0039410530482916
   6    -0.00094907977779942
   7    2.0767682748784e-14
   8     0.001685810281598
   9    0.0028161858006426
  10    -0.004570208741049
  11    0.0060181268926755
  12    -0.0078878491354145
  13    0.0053454672915257
 Sym= A
 Ene=               5
 Spin= Alpha
 Occup=    0.00000
   1    6.1889819287957e-13
   2    -5.6183263812475e-12
   3    3.1006397820311e-12
   4     -0.89419917745945
   5    -1.8316949705754e-13
   6    -5.6660798245793e-12
   7       1.0821182552665
   8    2.9027587898885e-14
   9    9.0813010848267e-12
  10    2.4140531408464e-12
  11    7.4873518177564e-13
  12    2.6572829993214e-12
  13    -1.0636153752976e-13
 Sym= A
 Ene=               6
 Spin= Alpha
 Occup=    0.00000
   1     0.076565954492788
   2     -0.67364296441164
   3      0.35721594014461
   4    7.3425256415753e-12
   5    1.8431303411441e-12
   6     -0.67224585486505
   7    -8.8855735616298e-12
   8    1.5414237266638e-12
   9       1.1138003005481
  10      0.35710550031929
  11     0.012935007272528
  12      0.35710550032115
  13      0.01293500727887
 Sym= A
 Ene=               7
 Spin= Alpha
 Occup=    0.00000
   1    -0.0014838989695656
   2     -0.01530519729267
   3    -0.091465986214815
   4    -1.2236517344022e-13
   5      0.51588405410206
   6    -0.092986438855147
   7    1.4788762083836e-13
   8      0.52300581329759
   9     0.018271050620537
  10     -0.62067431629739
  11     -0.58314618418377
  12     0.050622479517286
  13       1.1670247388834
 Sym= A
 Ene=               8
 Spin= Alpha
 Occup=    0.00000
   1     0.067152791527242
   2       -1.335798453226
   3       1.8633874959235
   4    1.4548317764307e-14
   5      0.37126490603981
   6      0.47071732436906
   7    -1.7629483296834e-14
   8     -0.84622675958997
   9     -0.78330415076766
  10     -0.12233118464513
  11      0.17387350150546
  12      -0.3034684639169
  13     -0.78937102582176
 Sym= A
 Ene=               9
 Spin= Alpha
 Occup=    0.00000
   1    -0.058322703624519
   2     -0.22175638043601
   3        1.056013316957
   4    3.6208292456295e-13
   5    -0.042235794609343
   6     -0.48431629454797
   7    -4.3820407577509e-13
   8     -0.25390123174248
   9     -0.32279917662194
  10     -0.92708051560257
  11      0.34977345666101
  12     -0.97727271416774
  13     -0.38159409145844
 Sym= A
 Ene=              10
 Spin= Alpha
 Occup=    0.00000
   1    -0.036517055819871
   2      -0.2720529370422
   3       1.3780884792404
   4    -2.9112157615296e-13
   5      0.21677166292661
   6    -0.042039612347851
   7    3.5225181518748e-13
   8     -0.31153408650585
   9     -0.41103230003166
  10      0.47826058116998
  11      -1.4787758256026
  12     -0.19560464587355
  13     -0.56787841576652
 Sym= A
 Ene=              11
 Spin= Alpha
 Occup=    0.00000
   1    -0.023298774180023
   2      0.55985549972465
   3      -0.8046796509621
   4    -1.2258927289645e-14
   5      0.77686034394223
   6     -0.14145188255823
   7    1.4741779105394e-14
   8       -1.219451335765
   9      0.33480422070025
  10     -0.20083178775128
  11       1.3354022805137
  12      0.61194417330401
  13      -1.2042672616195
 Sym= A
 Ene=              12
 Spin= Alpha
 Occup=    0.00000
   1    -0.0030245310664481
   2       0.5842387045469
   3      -1.3489751898426
   4    -8.908028086486e-14
   5      0.20284272179755
   6     -0.13924448769053
   7    1.077684867037e-13
   8     -0.99398606981682
   9      0.47700972868566
  10      0.73215306868157
  11       0.4480983728075
  12     -0.77610563965183
  13      0.87183102825489
