[Molden Format]
made by pyscf v[2.11.0]
[Atoms] (AU)
O   1   8     0.00000000000000     0.00000000000000     0.22166487441148
H   2   1     0.00000000000000     1.43090062152066    -0.88665949764593
H   3   1     0.00000000000000    -1.43090062152066    -0.88665949764593
[GTO]
1 0
 s    6 1.00
             5484.6717   0.001831099805527
             825.23495   0.013950098518422
             188.04696    0.06844509273075
               52.9645    0.23271427528445
              16.89757    0.47019295006289
             5.7996353    0.35852086192309
 s    3 1.00
             15.539616   -0.11077750382508
             3.5999336   -0.14802630511126
             1.0137618     1.1307670390447
 s    1 1.00
             0.2700058                   1
 p    3 1.00
             15.539616   0.070874299543311
             3.5999336    0.33975279781076
             1.0137618    0.72715859531445
 p    1 1.00
             0.2700058                   1

2 0
 s    3 1.00
             18.731137    0.03349459952309
             2.8253937    0.23472694665786
             0.6401217    0.81375731841339
 s    1 1.00
             0.1612778                   1

3 0
 s    3 1.00
             18.731137    0.03349459952309
             2.8253937    0.23472694665786
             0.6401217    0.81375731841339
 s    1 1.00
             0.1612778                   1

[5d]
[7f]
[9g]

[MO]
 Sym= A
 Ene=               0
 Spin= Alpha
 Occup=    1.00000
   1    1.8347563943642e-16
   2    -6.6262845207564e-14
   3    1.0073047544506e-13
   4    -1.0505737975974e-16
   5      0.57436902687673
   6    -3.5492332697171e-14
   7    -2.3808554152695e-16
   8      0.24865653978603
   9    -3.9005662434573e-14
  10      0.26427855615119
  11      0.06278378309958
  12     -0.26427855615116
  13    -0.062783783099612
 Sym= A
 Ene=               1
 Spin= Alpha
 Occup=    1.00000
   1     0.091271915889155
   2     -0.22568809631709
   3     -0.29421087639037
   4    -2.107221796421e-16
   5    -4.4730816045776e-14
   6     -0.60486262900977
   7    -1.3049152753232e-16
   8    -3.712439237768e-14
   9     -0.35153968182025
  10      0.12957641052073
  11     0.048646104838895
  12       0.1295764105207
  13     0.048646104838909
 Sym= A
 Ene=               2
 Spin= Alpha
 Occup=    1.00000
   1      0.34768878265568
   2     -0.47717713700226
   3     -0.44145857857742
   4    5.7931992583342e-17
   5    1.3172154588423e-14
   6       0.1767825678414
   7    7.9382910557365e-18
   8    -1.9829040932959e-14
   9     0.081799615167132
  10     -0.15174791265961
  11      0.02149638059835
  12     -0.15174791265973
  13     0.021496380598375
 Sym= A
 Ene=               3
 Spin= Alpha
 Occup=    1.00000
   1      0.95599384505412
   2      0.09473539999249
   3      0.04925245313963
   4    -8.2097847006597e-18
   5    -1.8365578944789e-15
   6    -0.027233199962082
   7    -1.1102724087184e-18
   8    2.881917528827e-15
   9    -0.0088269458215286
  10     0.021595812334165
  11    -6.4264811028712e-06
  12     0.021595812334181
  13    -6.4264811065488e-06
 Sym= A
 Ene=               4
 Spin= Alpha
 Occup=    1.00000
   1    -2.2246195785574e-15
   2    1.9678552633123e-15
   3    3.3669471047272e-14
   4      -0.6880077539194
   5    -3.5363851647323e-15
   6    -5.4141912167623e-15
   7     -0.45850755903952
   8    -2.5036192547345e-15
   9    -1.1886132946374e-14
  10    1.9750135763994e-16
  11    -2.27214846582e-14
  12    -2.0491610220371e-15
  13    -3.417007998502e-14
 Sym= A
 Ene=               5
 Spin= Alpha
 Occup=    0.00000
   1     -0.09181949113859
   2      0.22340981462045
   3      0.98912268912134
   4     0.023572719971233
   5      0.01908180592471
   6     -0.30274868200567
   7    -0.026928727265372
   8     0.042446859951157
   9     -0.36363699276071
  10     -0.17151531759394
  11     -0.93989255096856
  12     -0.15611870737923
  13     -0.79958452221137
 Sym= A
 Ene=               6
 Spin= Alpha
 Occup=    0.00000
   1    0.0055846651756982
   2     -0.19462765909027
   3      0.32770394228303
   4      0.40465574405698
   5      0.84376944032435
   6     0.056192195610333
   7     -0.46226588112819
   8      -0.7363650499691
   9     -0.14639869763603
  10     -0.60532198405082
  11      0.69727405916197
  12       0.4673805166824
  13     -0.82768262166503
 Sym= A
 Ene=               7
 Spin= Alpha
 Occup=    0.00000
   1     0.010290919372248
   2     -0.14180564894787
   3      0.15308813194474
   4      0.49079699632099
   5    -0.077689558489408
   6     0.020519891874371
   7     -0.56067091420664
   8      0.86158620089946
   9    -0.019306639095748
  10      0.21348609344695
  11      -1.4371640161556
  12     -0.21739155173825
  13       1.4145157541934
 Sym= A
 Ene=               8
 Spin= Alpha
 Occup=    0.00000
   1    -0.016873328340334
   2     0.091677640355481
   3     -0.29473271443599
   4    0.0077074336024468
   5     0.010092133892276
   6     -0.80532143278977
   7    -0.0088047275685589
   8     0.010345535812662
   9      0.66795414279611
  10     -0.63466890325111
  11      0.62646491523575
  12     -0.59892922061508
  13      0.62088417344721
 Sym= A
 Ene=               9
 Spin= Alpha
 Occup=    0.00000
   1    0.0047520818763885
   2    -0.094965284227495
   3      0.13434627841611
   4     -0.63988522279007
   5      0.30311992776703
   6     0.016201036919327
   7      0.73098457312966
   8      0.65655038402294
   9    -0.036808035831257
  10     -0.41830866487664
  11     -0.63289263446656
  12      0.39250922619655
  13      0.58191772748938
 Sym= A
 Ene=              10
 Spin= Alpha
 Occup=    0.00000
   1     0.077214002677929
   2     -0.48765794600325
   3      0.16248337874417
   4    0.0083399148551899
   5     0.017849192336205
   6     -0.45083983033939
   7    -0.0095272540812476
   8    -0.027500981966792
   9       1.0449852771509
  10       0.7337504765301
  11     -0.21760184079525
  12      0.79633610889386
  13     -0.35014304606333
 Sym= A
 Ene=              11
 Spin= Alpha
 Occup=    0.00000
   1    -0.0018237243178701
   2     0.094197459889354
   3     -0.17319010225544
   4     -0.20919361811858
   5      0.55115952462303
   6    -0.026962634800644
   7      0.23897615102768
   8      -1.3793743512842
   9     0.078629790336282
  10      0.70500888407559
  11     0.013235708150934
  12     -0.63472715429325
  13     0.071334582367133
 Sym= A
 Ene=              12
 Spin= Alpha
 Occup=    0.00000
   1     0.046503431608951
   2        -1.63318471055
   3       2.7957432596667
   4    -0.064528929831028
   5     -0.08179608189459
   6      0.17015106072628
   7     0.073715801751723
   8    -0.090192655878204
   9     -0.87280634019015
  10     -0.35329649848861
  11      -0.6219253673477
  12     -0.58271333704144
  13     -0.69663110160342
