[Molden Format]
made by pyscf v[2.11.0]
[Atoms] (AU)
O   1   8     0.00000000000000     0.00000000000000     0.22166487441148
H   2   1     0.00000000000000     1.43090062152066    -0.88665949764593
H   3   1     0.00000000000000    -1.43090062152066    -0.88665949764593
[GTO]
1 0
 s    6 1.00
             5484.6717   0.001831099805527
             825.23495   0.013950098518422
             188.04696    0.06844509273075
               52.9645    0.23271427528445
              16.89757    0.47019295006289
             5.7996353    0.35852086192309
 s    3 1.00
             15.539616   -0.11077750382508
             3.5999336   -0.14802630511126
             1.0137618     1.1307670390447
 s    1 1.00
             0.2700058                   1
 p    3 1.00
             15.539616   0.070874299543311
             3.5999336    0.33975279781076
             1.0137618    0.72715859531445
 p    1 1.00
             0.2700058                   1

2 0
 s    3 1.00
             18.731137    0.03349459952309
             2.8253937    0.23472694665786
             0.6401217    0.81375731841339
 s    1 1.00
             0.1612778                   1

3 0
 s    3 1.00
             18.731137    0.03349459952309
             2.8253937    0.23472694665786
             0.6401217    0.81375731841339
 s    1 1.00
             0.1612778                   1

[5d]
[7f]
[9g]

[MO]
 Sym= A
 Ene=               0
 Spin= Alpha
 Occup=    1.00000
   1     0.082410982359895
   2     -0.20465077945566
   3     -0.27490948046277
   4    -2.1303676265675e-16
   5    -2.5433265957494e-15
   6     -0.61197440693968
   7    -1.3071517867233e-16
   8    -1.773838872823e-14
   9     -0.35474094742322
  10       0.1360281489382
  11     0.047689626762874
  12      0.13602814893814
  13     0.047689626762877
 Sym= A
 Ene=               1
 Spin= Alpha
 Occup=    1.00000
   1    4.6688768902924e-14
   2    -1.430376037691e-13
   3    3.5901541859735e-14
   4    -1.0505737975971e-16
   5      0.57436902687673
   6    3.8492714957521e-14
   7    -2.3808554152694e-16
   8      0.24865653978603
   9    -7.26562949775e-17
  10      0.26427855615115
  11     0.062783783099581
  12      -0.2642785561512
  13    -0.062783783099611
 Sym= A
 Ene=               2
 Spin= Alpha
 Occup=    1.00000
   1      0.20260314820969
   2     -0.49524917851716
   3     -0.45602975697503
   4    4.9419871046133e-17
   5    -9.5694433365332e-14
   6      0.15277356123316
   7    2.4134642314562e-18
   8    -6.7959684204639e-14
   9      0.06704711167155
  10     -0.14757243433158
  11     0.023315201810315
  12     -0.14757243433159
  13     0.023315201810365
 Sym= A
 Ene=               3
 Spin= Alpha
 Occup=    1.00000
   1      0.99764857455821
   2     0.021312966825816
   3    -0.018252639021109
   4    6.0615604078858e-19
   5    -8.3139422947006e-15
   6    -0.00029611544425022
   7    7.1989549710917e-20
   8    -3.8361498789674e-15
   9    0.0035756042966754
  10    -0.0016042419639207
  11    0.0032617173218267
  12    -0.001604241963914
  13    0.0032617173218288
 Sym= A
 Ene=               4
 Spin= Alpha
 Occup=    1.00000
   1    -0.094628159200297
   2      0.26495051505451
   3      0.91916562890545
   4    3.7710415808359e-14
   5    7.3650932578131e-14
   6     -0.34515625971829
   7    3.503895977984e-14
   8    1.1761102875628e-13
   9      -0.3237123131631
  10      -0.1995644987122
  11     -0.81917946167869
  12     -0.19956449871198
  13     -0.81917946167861
 Sym= A
 Ene=               5
 Spin= Alpha
 Occup=    0.00000
   1    8.565731613637e-15
   2    1.5339157372464e-13
   3    -4.3531240119067e-13
   4    1.631748276597e-12
   5      0.53144285518018
   6    5.4115790819544e-14
   7    9.9491288486225e-13
   8      0.69606439697976
   9    3.0583433560608e-14
  10     -0.51587938025514
  11     -0.78278101784738
  12      0.51587938025512
  13       0.7827810178478
 Sym= A
 Ene=               6
 Spin= Alpha
 Occup=    0.00000
   1    -0.023609592762747
   2      0.26053445313662
   3     -0.58674556524824
   4    1.3703686135853e-12
   5    -8.775130127035e-14
   6     -0.74377665338091
   7    6.3831082551382e-13
   8    1.5843751984299e-13
   9      0.63618542603977
  10     -0.64792967761986
  11      0.74992537748517
  12     -0.64792967761966
  13      0.74992537748499
 Sym= A
 Ene=               7
 Spin= Alpha
 Occup=    0.00000
   1     0.058362353202062
   2      -1.6980919475412
   3       2.7763052918196
   4    8.2458732116374e-13
   5    2.0479830273083e-12
   6    0.0033204137964882
   7    6.0405758436956e-13
   8    -4.0632395782974e-12
   9     -0.60400039653141
  10     -0.37829860270107
  11     -0.65288939589114
  12     -0.37829860270316
  13     -0.65288939589286
 Sym= A
 Ene=               8
 Spin= Alpha
 Occup=    0.00000
   1    -0.0058972365509476
   2      0.01227766797581
   3     0.040184240429546
   4      0.26109735919843
   5    -0.00048417772311578
   6     0.050925524473245
   7      0.19657862442274
   8     -0.19843200263921
   9     -0.11624236504254
  10      0.68778985939321
  11      -1.0201287759056
  12     -0.83250765012587
  13       1.0363807860689
 Sym= A
 Ene=               9
 Spin= Alpha
 Occup=    0.00000
   1    -4.3930494419524e-15
   2    4.1066113155294e-14
   3    -1.0785585010881e-13
   4     -0.95151942738701
   5    6.7835582187147e-14
   6    -1.6457170383157e-13
   7         1.04495389221
   8    4.8875957303339e-14
   9    1.3698266623047e-13
  10    -2.9344200290026e-14
  11    -1.9595255915831e-13
  12    -2.6678666639274e-13
  13    5.2495518456618e-13
 Sym= A
 Ene=              10
 Spin= Alpha
 Occup=    0.00000
   1     0.062333863644367
   2     -0.12977510308616
   3     -0.42474792086828
   4      0.14502466471486
   5    -1.1978749781005e-06
   6     -0.53828342667453
   7      0.10918819395413
   8    -0.00049092843548999
   9       1.2286832433821
  10      0.76671506081209
  11    -0.088435916740569
  12      0.76295378607525
  13    -0.083348032683347
 Sym= A
 Ene=              11
 Spin= Alpha
 Occup=    0.00000
   1    -1.3227466169285e-13
   2    3.7578541799769e-12
   3    -6.136365340924e-12
   4    1.2212430022661e-12
   5      0.91579714871558
   6    -6.314997778242e-14
   7    9.2512956706927e-13
   8      -1.7599238454549
   9    1.3602066537944e-12
  10     0.045158600761706
  11       1.0550635660063
  12    -0.045158600760176
  13      -1.0550635660033
 Sym= A
 Ene=              12
 Spin= Alpha
 Occup=    0.00000
   1     0.012835329028499
   2    -0.026722331177227
   3    -0.087460956207788
   4      -0.5843398925535
   5    -0.00021663974340472
   6     -0.11083934940181
   7     -0.43994597504317
   8    -0.088786114491783
   9      0.25300138285417
  10      0.49760886480731
  11     -0.47776700198356
  12     -0.18263074847703
  13      0.44239451929653
