[Molden Format]
made by pyscf v[2.11.0]
[Atoms] (AU)
O   1   8     0.00000000000000     0.00000000000000     0.22166487441148
H   2   1     0.00000000000000     1.43090062152066    -0.88665949764593
H   3   1     0.00000000000000    -1.43090062152066    -0.88665949764593
[GTO]
1 0
 s    6 1.00
             5484.6717   0.001831099805527
             825.23495   0.013950098518422
             188.04696    0.06844509273075
               52.9645    0.23271427528445
              16.89757    0.47019295006289
             5.7996353    0.35852086192309
 s    3 1.00
             15.539616   -0.11077750382508
             3.5999336   -0.14802630511126
             1.0137618     1.1307670390447
 s    1 1.00
             0.2700058                   1
 p    3 1.00
             15.539616   0.070874299543311
             3.5999336    0.33975279781076
             1.0137618    0.72715859531445
 p    1 1.00
             0.2700058                   1

2 0
 s    3 1.00
             18.731137    0.03349459952309
             2.8253937    0.23472694665786
             0.6401217    0.81375731841339
 s    1 1.00
             0.1612778                   1

3 0
 s    3 1.00
             18.731137    0.03349459952309
             2.8253937    0.23472694665786
             0.6401217    0.81375731841339
 s    1 1.00
             0.1612778                   1

[5d]
[7f]
[9g]

[MO]
 Sym= A
 Ene=               0
 Spin= Alpha
 Occup=    1.00000
   1     0.069059585556514
   2     -0.17839344403068
   3     -0.23324059391155
   4    1.6886855714351e-13
   5    1.2876876368755e-14
   6     -0.63396432789994
   7    9.3661650577272e-14
   8    -7.0218793117064e-15
   9     -0.34839853064603
  10      0.14148452433688
  11     0.042655126595724
  12      0.14148452433682
  13     0.042655126595683
 Sym= A
 Ene=               1
 Spin= Alpha
 Occup=    1.00000
   1    1.2981544829061e-14
   2    -8.2174682198213e-14
   3    8.5109161223427e-14
   4    4.0146097516822e-13
   5      0.59465201472055
   6    4.1624837002897e-14
   7    2.2282438225939e-13
   8      0.25436614734848
   9    4.7621532520732e-15
  10      0.25029370582548
  11     0.050747653246995
  12     -0.25029370582551
  13    -0.050747653247027
 Sym= A
 Ene=               2
 Spin= Alpha
 Occup=    1.00000
   1      0.20933591189165
   2     -0.52752696136687
   3     -0.47542543127198
   4    2.9724066285101e-14
   5    -3.5269893545614e-14
   6      0.12269482388695
   7    1.6482738276133e-14
   8    -4.2805430025131e-14
   9     0.056984659705137
  10     -0.12075395067668
  11     0.032416441424083
  12     -0.12075395067676
  13     0.032416441424116
 Sym= A
 Ene=               3
 Spin= Alpha
 Occup=    1.00000
   1    -2.9004094143059e-14
   2    6.2438248731655e-14
   3    7.3146621438529e-14
   4      0.73243030119679
   5    -3.2608187067295e-13
   6    1.4109532275775e-13
   7      0.40628364069882
   8    -1.3916163983998e-13
   9    7.7998744297745e-14
  10    -1.6514435199058e-13
  11    -3.9182618630075e-14
  12    1.0965770978405e-13
  13    1.6914842959948e-14
 Sym= A
 Ene=               4
 Spin= Alpha
 Occup=    1.00000
   1      0.99794467500454
   2     0.021220746428404
   3    -0.020131527618366
   4    3.4570808167607e-15
   5    -2.8034569336008e-15
   6    -0.00031633118195784
   7    1.9171655027635e-15
   8    -1.4992800197326e-15
   9    0.0036943315567215
  10    -0.001676609445303
  11     0.003598512924156
  12    -0.0016766094453018
  13    0.0035985129241568
 Sym= A
 Ene=               5
 Spin= Alpha
 Occup=    0.00000
   1    -0.091713434360471
   2      0.28162736412086
   3      0.85506469696933
   4    2.7528408096294e-15
   5    9.4345198295113e-14
   6     -0.37177434772991
   7    -3.3577921285316e-15
   8    1.4056768252111e-13
   9     -0.28133548548005
  10     -0.22641605084752
  11     -0.77857843097351
  12     -0.22641605084728
  13     -0.77857843097332
 Sym= A
 Ene=               6
 Spin= Alpha
 Occup=    0.00000
   1    1.4563663889919e-14
   2    7.6899576906925e-14
   3    -3.6859415898419e-13
   4    1.1360609785339e-13
   5      0.58822613426764
   6    5.0464078580894e-14
   7    -1.3767019093522e-13
   8      0.52361711215731
   9    3.2447812858825e-14
  10     -0.45411421153888
  11     -0.77576138863472
  12      0.45411421153886
  13      0.77576138863516
 Sym= A
 Ene=               7
 Spin= Alpha
 Occup=    0.00000
   1    -0.033206153008873
   2      0.63074508134721
   3      -1.2303525275074
   4    4.4379352419817e-14
   5    9.2120982800287e-14
   6     -0.67779354285775
   7    -5.3760745430493e-14
   8    -2.8015177427013e-13
   9      0.71862193242858
  10     -0.57068377082431
  11      0.91879021066491
  12     -0.57068377082439
  13      0.91879021066449
 Sym= A
 Ene=               8
 Spin= Alpha
 Occup=    0.00000
   1    1.4448994655811e-14
   2    -1.7494026074959e-13
   3    1.6516023237872e-13
   4     -0.89419917745945
   5    2.8058337143449e-13
   6    -1.5382429241731e-13
   7       1.0821182552665
   8    1.180850884509e-13
   9    2.0569946444889e-13
  10    -1.2069325077805e-12
  11    1.5539160848184e-12
  12    1.2881176695734e-12
  13    -1.5944635135067e-12
 Sym= A
 Ene=               9
 Spin= Alpha
 Occup=    0.00000
   1     0.024275639905542
   2      -1.4354340459162
   3       2.5638054891741
   4    4.0870638898865e-14
   5    3.199886922051e-12
   6     0.067334983556794
   7    -4.9482485946876e-14
   8    -7.0462289463324e-12
   9      -0.8962080303795
  10      -0.7659757109134
  11      -0.4118594300238
  12     -0.76597571091579
  13      -0.4118594300299
 Sym= A
 Ene=              10
 Spin= Alpha
 Occup=    0.00000
   1     0.074530580511141
   2     -0.69171577496948
   3      0.52112590948058
   4    2.1200419907443e-13
   5    0.0026266212764963
   6     -0.59625539677512
   7    -2.5653774152634e-13
   8    0.0024857201588128
   9       1.0333962526549
  10      0.48978446379054
  11     -0.19103389750449
  12      0.52931350251935
  13      -0.2443789180705
 Sym= A
 Ene=              11
 Spin= Alpha
 Occup=    0.00000
   1    -3.3212894389823e-08
   2    3.0825228886618e-07
   3    -2.3223711259481e-07
   4    4.8550840830584e-14
   5      0.85928144451438
   6    2.6570703754672e-07
   7    -5.8855551687097e-14
   8      -1.8276674157538
   9    -4.6050544554432e-07
  10      0.15698657176365
  11       1.0249133202182
  12     -0.15698702589472
  13      -1.0249131261839
 Sym= A
 Ene=              12
 Spin= Alpha
 Occup=    0.00000
   1    0.0017151617241284
   2    -0.015918357444797
   3     0.011992596960124
   4    -1.2428862715013e-12
   5     -0.11412047424783
   6    -0.013721541243402
   7    1.5040703628661e-12
   8     -0.10804979248763
   9     0.023781402027681
  10      0.87057598576414
  11      -1.1640165747998
  12     -0.84712362818049
  13       1.1539964811641
