[Molden Format]
made by pyscf v[2.11.0]
[Atoms] (AU)
O   1   8     0.00000000000000     0.00000000000000     0.22166487441148
H   2   1     0.00000000000000     1.43090062152066    -0.88665949764593
H   3   1     0.00000000000000    -1.43090062152066    -0.88665949764593
[GTO]
1 0
 s    6 1.00
             5484.6717   0.001831099805527
             825.23495   0.013950098518422
             188.04696    0.06844509273075
               52.9645    0.23271427528445
              16.89757    0.47019295006289
             5.7996353    0.35852086192309
 s    3 1.00
             15.539616   -0.11077750382508
             3.5999336   -0.14802630511126
             1.0137618     1.1307670390447
 s    1 1.00
             0.2700058                   1
 p    3 1.00
             15.539616   0.070874299543311
             3.5999336    0.33975279781076
             1.0137618    0.72715859531445
 p    1 1.00
             0.2700058                   1

2 0
 s    3 1.00
             18.731137    0.03349459952309
             2.8253937    0.23472694665786
             0.6401217    0.81375731841339
 s    1 1.00
             0.1612778                   1

3 0
 s    3 1.00
             18.731137    0.03349459952309
             2.8253937    0.23472694665786
             0.6401217    0.81375731841339
 s    1 1.00
             0.1612778                   1

[5d]
[7f]
[9g]

[MO]
 Sym= A
 Ene=               0
 Spin= Alpha
 Occup=    1.00000
   1    8.4902602677759e-15
   2    -1.8622512936029e-14
   3    -2.2019519593588e-14
   4      0.62260816691624
   5    5.4114692161524e-14
   6    -3.0381008730987e-15
   7      0.53028085087881
   8    2.7278130401626e-14
   9    -3.5339558057618e-15
  10    2.2444116020542e-14
  11    1.9090956161093e-14
  12    -2.8656937038958e-14
  13    -1.6438628590061e-14
 Sym= A
 Ene=               1
 Spin= Alpha
 Occup=    1.00000
   1      0.11735934468373
   2     -0.10650215500943
   3     0.051282819287098
   4    -5.1286217956944e-15
   5    -2.8879615092063e-12
   6      0.51427808227387
   7    -4.3526063311761e-15
   8    -1.434824946064e-12
   9      0.35907743836256
  10     -0.19676965612479
  11    -0.095732213757799
  12     -0.19676965612205
  13    -0.095732213755932
 Sym= A
 Ene=               2
 Spin= Alpha
 Occup=    1.00000
   1     -0.33427075855658
   2      0.46223087149447
   3      0.57206019759108
   4    3.4247724637359e-14
   5    -0.088731899005806
   6      0.19393651117085
   7    2.9126405556398e-14
   8    -0.044002217742246
   9      0.17399727008714
  10    -0.0011564449740778
  11    -0.079972247050309
  12      0.08304122267273
  13    -0.022342386216486
 Sym= A
 Ene=               3
 Spin= Alpha
 Occup=    1.00000
   1    -0.016386465998638
   2     0.085247126988236
   3      0.10280431639744
   4    -6.0769519520357e-14
   5       0.5046231159471
   6     0.033435817950921
   7    -5.1588478024082e-14
   8      0.25024299574859
   9     0.030482012877535
  10      0.24744831798096
  11      0.15504495613115
  12     -0.23138837862384
  13     -0.17269918404171
 Sym= A
 Ene=               4
 Spin= Alpha
 Occup=    1.00000
   1      0.95669283530413
   2     0.089582424967964
   3     0.049975637975289
   4    6.0288566817311e-15
   5    -0.022359830519797
   6    -0.015021056859199
   7    5.1248587273244e-15
   8    -0.011088257348661
   9    -0.0025572590562065
  10    0.0081398432587483
  11    -0.0034632782534383
  12     0.029357078546609
  13     0.011059051771748
 Sym= A
 Ene=               5
 Spin= Alpha
 Occup=    1.00000
   1    -0.091096461726168
   2       0.1589546757552
   3        1.107981078518
   4    -6.152746182984e-15
   5    2.0195519540061e-13
   6      -0.2722368951501
   7    6.2973824082027e-15
   8    3.055494107714e-13
   9     -0.45797800651032
  10    -0.072296913915165
  11     -0.95483937174791
  12    -0.072296913915068
  13     -0.95483937174682
 Sym= A
 Ene=               6
 Spin= Alpha
 Occup=    0.00000
   1    -2.0475071403699e-13
   2    3.2605569527793e-12
   3    -4.1226324935121e-12
   4     -0.97386107097963
   5    -2.2948311984435e-11
   6    1.5990655990863e-12
   7       1.0270581941992
   8    -3.5116780760303e-11
   9    -1.2664023766838e-12
  10    1.0076609345097e-11
  11    5.5757313055553e-11
  12    -9.9200423286234e-12
  13    -5.4237484580505e-11
 Sym= A
 Ene=               7
 Spin= Alpha
 Occup=    0.00000
   1    -0.0049141248355059
   2     0.036162968734857
   3    -0.029874079861591
   4    4.5933851149488e-11
   5     -0.44816810376361
   6    -0.015251305985667
   7    -4.844346678532e-11
   8     -0.72697093814703
   9    -0.015042525593796
  10     0.060913857199241
  11       1.2856197753436
  12     -0.17155187687262
  13      -1.2138342858787
 Sym= A
 Ene=               8
 Spin= Alpha
 Occup=    0.00000
   1     0.010592906134581
   2     0.062476718760298
   3    -0.028958893616101
   4    1.0561926740527e-12
   5      0.23102046376556
   6      0.80682357826433
   7    -1.1137540403037e-12
   8     -0.16217960875009
   9     -0.57004254534314
  10      0.20722960003794
  11     0.045441348371056
  12      0.87852153473371
  13     -0.88220557643166
 Sym= A
 Ene=               9
 Spin= Alpha
 Occup=    0.00000
   1    -0.019552327573341
   2      0.21548732898531
   3      -0.3199156879142
   4    -5.2329161846988e-12
   5      0.49815974001003
   6     -0.33376088466201
   7    5.5189607109116e-12
   8     -0.14772655703431
   9      0.25167610941187
  10      -1.0801115238293
  11       1.1743267478609
  12      0.55098336485324
  13     -0.60501684377041
 Sym= A
 Ene=              10
 Spin= Alpha
 Occup=    0.00000
   1     0.087713233579465
   2       -0.577025402615
   3      0.24163729179872
   4    -1.3751678039341e-13
   5    -0.0021411412719033
   6     -0.42125211085569
   7    1.4504249155459e-13
   8     0.021750062570096
   9      0.96700869649272
  10      0.67884210899417
  11     -0.17291719394826
  12       0.8735990458854
  13      -0.4282583666128
 Sym= A
 Ene=              11
 Spin= Alpha
 Occup=    0.00000
   1    -0.003975537745104
   2     0.051648350318088
   3     -0.05427967113429
   4    -7.9940722985498e-13
   5     -0.82708479070575
   6     0.044824718392488
   7    8.4311102397749e-13
   8       1.7461750625461
   9    -0.046849217442027
  10       -0.405932410368
  11     -0.60777118366755
  12      0.39984210600966
  13      0.61974309887946
 Sym= A
 Ene=              12
 Spin= Alpha
 Occup=    0.00000
   1     0.050782838601998
   2      -1.6352605469326
   3       2.7630726095181
   4    -1.5525314224602e-12
   5     0.039193357420971
   6      0.23499420752382
   7    1.637359934703e-12
   8    0.0057370945846606
   9     -0.94665952664054
  10     -0.58772556921232
  11     -0.53346619307352
  12     -0.39555376369321
  13     -0.72978511177019
