[Molden Format]
made by pyscf v[2.11.0]
[Atoms] (AU)
O   1   8     0.00000000000000     0.00000000000000     0.22166487441148
H   2   1     0.00000000000000     1.43090062152066    -0.88665949764593
H   3   1     0.00000000000000    -1.43090062152066    -0.88665949764593
[GTO]
1 0
 s    6 1.00
             5484.6717   0.001831099805527
             825.23495   0.013950098518422
             188.04696    0.06844509273075
               52.9645    0.23271427528445
              16.89757    0.47019295006289
             5.7996353    0.35852086192309
 s    3 1.00
             15.539616   -0.11077750382508
             3.5999336   -0.14802630511126
             1.0137618     1.1307670390447
 s    1 1.00
             0.2700058                   1
 p    3 1.00
             15.539616   0.070874299543311
             3.5999336    0.33975279781076
             1.0137618    0.72715859531445
 p    1 1.00
             0.2700058                   1

2 0
 s    3 1.00
             18.731137    0.03349459952309
             2.8253937    0.23472694665786
             0.6401217    0.81375731841339
 s    1 1.00
             0.1612778                   1

3 0
 s    3 1.00
             18.731137    0.03349459952309
             2.8253937    0.23472694665786
             0.6401217    0.81375731841339
 s    1 1.00
             0.1612778                   1

[5d]
[7f]
[9g]

[MO]
 Sym= A
 Ene=               0
 Spin= Alpha
 Occup=    1.00000
   1    -0.052442526974757
   2      0.11515482981551
   3      0.30640889381178
   4    -2.1753376782754e-12
   5    -1.1478919154168e-12
   6      0.54798758587941
   7    -1.852746073499e-12
   8    -5.7199413102912e-13
   9      0.40016851536228
  10     -0.15723036738909
  11     -0.10887759075475
  12     -0.15723036738801
  13     -0.10887759075401
 Sym= A
 Ene=               1
 Spin= Alpha
 Occup=    1.00000
   1    -1.2151492876761e-13
   2    2.535408454661e-13
   3    6.8439032160255e-13
   4    -2.1065233506542e-12
   5      0.51285261144915
   6    1.2235778682221e-12
   7    -1.7939699056601e-12
   8      0.25432400896985
   9    8.9183571867437e-13
  10      0.24332283099061
  11      0.16654452884019
  12     -0.24332283099132
  13     -0.16654452884068
 Sym= A
 Ene=               2
 Spin= Alpha
 Occup=    1.00000
   1     -0.22490236070282
   2       0.4755033131371
   3      0.49894357412163
   4    -8.5371462872105e-12
   5    4.908853254376e-15
   6    -0.055998531426121
   7    -7.2711810043499e-12
   8    2.9406382082045e-15
   9    -0.0032948197178926
  10      0.12683629294515
  11    -0.0029972508136224
  12      0.12683629294514
  13    -0.0029972508136244
 Sym= A
 Ene=               3
 Spin= Alpha
 Occup=    1.00000
   1      0.99383527946816
   2     0.030465315899962
   3    -0.010862261216436
   4    -2.6398513838829e-12
   5    3.0870652099294e-15
   6    -0.0032668859481053
   7    -2.2483845880759e-12
   8    1.5727273959211e-15
   9    0.0012856506189177
  10    0.0013146625698644
  11    0.0032796950493353
  12    0.0013146625698614
  13    0.0032796950493333
 Sym= A
 Ene=               4
 Spin= Alpha
 Occup=    1.00000
   1    9.4677230590649e-13
   2    7.0518022196491e-12
   3    7.8654577402986e-12
   4      0.62260816691624
   5    1.7348196209491e-12
   6    1.1329078496342e-12
   7      0.53028085087881
   8    8.6074101202142e-13
   9    1.3585068792064e-12
  10    2.0185181290767e-12
  11    1.5615728895428e-13
  12    3.7259676233099e-13
  13    -9.7096159157445e-13
 Sym= A
 Ene=               5
 Spin= Alpha
 Occup=    1.00000
   1    1.5221696597381e-13
   2    -6.0055817017117e-13
   3    -8.7535372782077e-13
   4    1.0700013225248e-13
   5     -0.43949192972832
   6    -1.7583153244379e-13
   7    -1.1336295479081e-13
   8     -0.89860424655789
   9    1.2462649682536e-12
  10      0.35735368927901
  11       1.0779913118808
  12     -0.35735368927788
  13      -1.0779913118793
 Sym= A
 Ene=               6
 Spin= Alpha
 Occup=    0.00000
   1     -0.10363744572527
   2      0.11426659167129
   3       1.2593711147869
   4    -2.4669598550903e-13
   5    -6.2930591834652e-13
   6     -0.32587876964648
   7    2.5997449220649e-13
   8    -9.0725710855663e-13
   9     -0.60700871636887
  10     -0.40749317596425
  11     -0.80447212424578
  12     -0.40749317596609
  13     -0.80447212424662
 Sym= A
 Ene=               7
 Spin= Alpha
 Occup=    0.00000
   1    -3.3500745084712e-14
   2    1.1760278866426e-12
   3    -9.1427033044479e-13
   4    -4.2298271706564e-13
   5       0.0991822321578
   6    3.4582025948921e-13
   7    4.4619396004812e-13
   8      0.24461983918714
   9    6.0297767745604e-13
  10     -0.91806201174167
  11       1.0162412901985
  12      0.91806201174695
  13      -1.0162412902025
 Sym= A
 Ene=               8
 Spin= Alpha
 Occup=    0.00000
   1    8.9761691197596e-14
   2    -1.873065049755e-12
   3    3.647770413477e-12
   4    -2.8407055171822e-13
   5     -0.99247564895715
   6    2.3134401809174e-12
   7    2.9951035900526e-13
   8       1.6609987889629
   9    -2.4927345357599e-12
  10    -0.042185563118888
  11     -0.88107151680749
  12     0.042185563121609
  13       0.8810715168025
 Sym= A
 Ene=               9
 Spin= Alpha
 Occup=    0.00000
   1     0.016995425143829
   2      0.50655741463586
   3      -1.0217641383179
   4     0.064212193908033
   5    2.5247685339505e-13
   6     -0.33359488619972
   7    -0.067719782509029
   8    -9.777213858469e-13
   9      0.99381247712871
  10      0.96881910538724
  11     -0.24605700014635
  12      0.96881910538293
  13     -0.24605700014147
 Sym= A
 Ene=              10
 Spin= Alpha
 Occup=    0.00000
   1      0.03464773465926
   2     -0.83192602474558
   3       1.5486631531948
   4     -0.42669828854693
   5    2.4546151029866e-12
   6      0.67625169986885
   7      0.45000666600426
   8    -5.0075710265448e-12
   9     -0.85779513201109
  10      0.30458690381393
  11     -0.83555765615622
  12      0.30458690381097
  13     -0.83555765615854
 Sym= A
 Ene=              11
 Spin= Alpha
 Occup=    0.00000
   1    0.0040540803928131
   2      0.10224647914072
   3     -0.37750250735692
   4     -0.84818787847137
   5    -9.6241908451647e-13
   6     -0.46817599526326
   7      0.89452010842586
   8    1.9011678006413e-12
   9      0.55226077978966
  10     -0.10320736416711
  11      0.30415670485285
  12     -0.10320736416656
  13      0.30415670485455
 Sym= A
 Ene=              12
 Spin= Alpha
 Occup=    0.00000
   1      0.08281946848727
   2      -1.4540986489437
   3       1.9638536199559
   4      0.20685278119588
   5    1.0678525574133e-13
   6     -0.42119279803526
   7     -0.21815210634347
   8    1.0166353452575e-12
   9      0.18653993776093
  10     -0.09563576968806
  11     -0.40003876848098
  12    -0.095635769686308
  13     -0.40003876848092
