[Molden Format]
made by pyscf v[2.11.0]
[Atoms] (AU)
O   1   8     0.00000000000000     0.00000000000000     0.22166487441148
H   2   1     0.00000000000000     1.43090062152066    -0.88665949764593
H   3   1     0.00000000000000    -1.43090062152066    -0.88665949764593
[GTO]
1 0
 s    6 1.00
             5484.6717   0.001831099805527
             825.23495   0.013950098518422
             188.04696    0.06844509273075
               52.9645    0.23271427528445
              16.89757    0.47019295006289
             5.7996353    0.35852086192309
 s    3 1.00
             15.539616   -0.11077750382508
             3.5999336   -0.14802630511126
             1.0137618     1.1307670390447
 s    1 1.00
             0.2700058                   1
 p    3 1.00
             15.539616   0.070874299543311
             3.5999336    0.33975279781076
             1.0137618    0.72715859531445
 p    1 1.00
             0.2700058                   1

2 0
 s    3 1.00
             18.731137    0.03349459952309
             2.8253937    0.23472694665786
             0.6401217    0.81375731841339
 s    1 1.00
             0.1612778                   1

3 0
 s    3 1.00
             18.731137    0.03349459952309
             2.8253937    0.23472694665786
             0.6401217    0.81375731841339
 s    1 1.00
             0.1612778                   1

[5d]
[7f]
[9g]

[MO]
 Sym= A
 Ene=               0
 Spin= Alpha
 Occup=    1.00000
   1    -0.084828123695509
   2      0.12363017164969
   3       1.1213028362426
   4    4.8803179222289e-13
   5    2.0894444082119e-14
   6     -0.29537550907201
   7    4.0888542791649e-13
   8    1.9346574807052e-14
   9     -0.49219681389841
  10    -0.061081949828734
  11     -0.96050010321644
  12    -0.061081949828754
  13     -0.96050010321642
 Sym= A
 Ene=               1
 Spin= Alpha
 Occup=    1.00000
   1     0.020883949259673
   2    -0.053129360545105
   3      0.21892368935592
   4    -3.5102976311912e-13
   5    -2.3404525693442e-12
   6      0.53280498527251
   7    -2.9407771127743e-13
   8    -1.0619168641169e-12
   9      0.34235619658599
  10     -0.18884813325101
  11     -0.16490079498317
  12     -0.18884813324873
  13      -0.1649007949812
 Sym= A
 Ene=               2
 Spin= Alpha
 Occup=    1.00000
   1    1.5863966016936e-13
   2    -3.5016416114395e-13
   3    8.6095927012892e-13
   4    7.8694123064283e-13
   5       0.5012431594182
   6    2.4740869301051e-12
   7    6.5933157391892e-13
   8      0.22720749900563
   9    1.5911680843371e-12
  10      0.24456815950881
  11      0.21134212478388
  12      -0.2445681595106
  13     -0.21134212478532
 Sym= A
 Ene=               3
 Spin= Alpha
 Occup=    1.00000
   1     -0.28787168507506
   2       0.4928633443264
   3      0.59186817454122
   4    3.6639827668433e-12
   5    1.0115297528698e-13
   6      0.10848000265383
   7    3.0695231324564e-12
   8    4.5390290009907e-14
   9      0.11838788584853
  10     0.067136037080797
  11    -0.059081853995752
  12     0.067136037080697
  13    -0.059081853995837
 Sym= A
 Ene=               4
 Spin= Alpha
 Occup=    1.00000
   1     0.013838606757262
   2    0.00082848171339701
   3    0.00030632458159242
   4      0.62712950226627
   5    -6.290121421751e-13
   6    1.7288250974906e-05
   7      0.52538079871484
   8    -2.8513014076598e-13
   9    0.00010220392914752
  10    7.8133899114257e-05
  11    6.0187469928629e-06
  12    7.8133899727803e-05
  13    6.0187475228423e-06
 Sym= A
 Ene=               5
 Spin= Alpha
 Occup=    1.00000
   1      0.97903246884586
   2     0.058612150380003
   3      0.02167138071072
   4    -0.0088644645022523
   5    8.7467890534715e-15
   6    0.0012230826004617
   7    -0.0074262483642418
   8    3.9746645637562e-15
   9    0.0072305664118956
  10    0.0055276969888139
  11    0.00042580500421211
  12    0.0055276969888054
  13    0.00042580500420476
 Sym= A
 Ene=               6
 Spin= Alpha
 Occup=    0.00000
   1    1.7433798591746e-15
   2    -8.1749969212048e-15
   3    2.5879968900676e-15
   4    2.2777154589675e-14
   5      0.40088898484474
   6    4.8621374323297e-14
   7    -2.4101483405976e-14
   8      0.79399807919069
   9    -3.154665195812e-14
  10    -0.050830455046748
  11      -1.3346434296852
  12     0.050830455046795
  13       1.3346434296852
 Sym= A
 Ene=               7
 Spin= Alpha
 Occup=    0.00000
   1    -3.8293824896411e-13
   2    2.174419500003e-12
   3    -1.1339526286098e-12
   4    9.3649585179254e-14
   5      0.51767783954914
   6    -1.5972957607305e-12
   7    -9.9621779056505e-14
   8    -0.015376764808334
   9    -1.3055324952042e-12
  10     -0.92522060647472
  11      0.87112001388306
  12      0.92522060646466
  13     -0.87112001387742
 Sym= A
 Ene=               8
 Spin= Alpha
 Occup=    0.00000
   1     0.076539997120546
   2      -0.4556709174349
   3      0.26319872379583
   4    -7.6893160769954e-13
   5    2.7056655013169e-12
   6       0.2992458897781
   7    8.1553359684654e-13
   8    -2.4507087381232e-13
   9       0.2627071469258
  10       0.9799055047705
  11     -0.55893665627896
  12      0.97990550477989
  13     -0.55893665628804
 Sym= A
 Ene=               9
 Spin= Alpha
 Occup=    0.00000
   1    2.2176639534662e-13
   2    -4.6193840027895e-12
   3    6.6598974716446e-12
   4    -3.339366395726e-12
   5     -0.87810532268152
   6    -1.2228545433564e-12
   7    3.5408765748111e-12
   8        1.734541292063
   9    -7.4945362761548e-15
  10     -0.33629547725826
  11     -0.64346489377227
  12      0.33629547725652
  13      0.64346489376986
 Sym= A
 Ene=              10
 Spin= Alpha
 Occup=    0.00000
   1     0.041690658455465
   2      -1.3390312076814
   3       2.2531567042354
   4      0.56163487741143
   5    -1.5418537962587e-13
   6      0.19297879096747
   7     -0.59555074818167
   8    1.6318069530369e-13
   9     -0.77689235713735
  10     -0.40318285108216
  11     -0.50599158491583
  12      -0.4031828510823
  13     -0.50599158491555
 Sym= A
 Ene=              11
 Spin= Alpha
 Occup=    0.00000
   1     0.050933679664827
   2      -1.0202476878302
   3        1.434783387158
   4     -0.67945588600017
   5    4.0084331372327e-12
   6     -0.35528871674409
   7      0.72048670326329
   8    -7.8805639535018e-12
   9      0.10000166696409
  10     -0.19497262668362
  11      -0.2354361895104
  12     -0.19497262668671
  13     -0.23543618951615
 Sym= A
 Ene=              12
 Spin= Alpha
 Occup=    0.00000
   1    -0.027504950950876
   2     -0.14458275732251
   3       0.7140980415053
   4     -0.40691803497942
   5    4.4173676783706e-13
   6      0.85959972122323
   7      0.43149090259058
   8    -8.0919866072182e-13
   9      -1.2392583312681
  10     -0.23092181779875
  11     -0.30525561991564
  12     -0.23092181779887
  13     -0.30525561991646
