[Molden Format]
made by pyscf v[2.11.0]
[Atoms] (AU)
O   1   8     0.00000000000000     0.00000000000000     0.22166487441148
H   2   1     0.00000000000000     1.43090062152066    -0.88665949764593
H   3   1     0.00000000000000    -1.43090062152066    -0.88665949764593
[GTO]
1 0
 s    6 1.00
             5484.6717   0.001831099805527
             825.23495   0.013950098518422
             188.04696    0.06844509273075
               52.9645    0.23271427528445
              16.89757    0.47019295006289
             5.7996353    0.35852086192309
 s    3 1.00
             15.539616   -0.11077750382508
             3.5999336   -0.14802630511126
             1.0137618     1.1307670390447
 s    1 1.00
             0.2700058                   1
 p    3 1.00
             15.539616   0.070874299543311
             3.5999336    0.33975279781076
             1.0137618    0.72715859531445
 p    1 1.00
             0.2700058                   1

2 0
 s    3 1.00
             18.731137    0.03349459952309
             2.8253937    0.23472694665786
             0.6401217    0.81375731841339
 s    1 1.00
             0.1612778                   1

3 0
 s    3 1.00
             18.731137    0.03349459952309
             2.8253937    0.23472694665786
             0.6401217    0.81375731841339
 s    1 1.00
             0.1612778                   1

[5d]
[7f]
[9g]

[MO]
 Sym= A
 Ene=               0
 Spin= Alpha
 Occup=    1.00000
   1    5.9221415103867e-14
   2    -8.4338609993481e-14
   3    -8.142172561065e-13
   4      0.62719214866231
   5    3.1405754776071e-15
   6    2.2538778879505e-13
   7      0.52543328103862
   8    1.4169488282399e-15
   9    3.6788590757145e-13
  10    4.5427533201939e-14
  11    7.0593085032822e-13
  12    4.2090103514479e-14
  13    7.0283326188824e-13
 Sym= A
 Ene=               1
 Spin= Alpha
 Occup=    1.00000
   1    5.951000984323e-13
   2    -1.5583431096405e-12
   3    -2.3017317444916e-12
   4    -4.1937803095872e-15
   5       0.5012431594182
   6    4.3495232535289e-13
   7    -3.445639469105e-15
   8      0.22720749900563
   9    3.6397288287457e-13
  10      0.24456815950937
  11      0.21134212478532
  12     -0.24456815951004
  13     -0.21134212478388
 Sym= A
 Ene=               2
 Spin= Alpha
 Occup=    1.00000
   1    -0.081975945500657
   2      0.13075218853748
   3       1.0686353414149
   4    4.5640542464483e-13
   5    4.5185596032084e-13
   6     -0.38035538513515
   7    3.8238993308202e-13
   8    2.1472764148896e-13
   9     -0.54253932152376
  10    -0.028663600236477
  11      -0.9193594197258
  12    -0.028663600236917
  13     -0.91935941972614
 Sym= A
 Ene=               3
 Spin= Alpha
 Occup=    1.00000
   1    -0.089359115870647
   2     0.069928143311732
   3      0.51737960602627
   4    6.6717447010123e-14
   5    -1.2434889971899e-13
   6      0.48760022687879
   7    5.5898490311438e-14
   8    -5.5826640727701e-14
   9      0.27374769811158
  10     -0.17811322135703
  11     -0.32846671170134
  12     -0.17811322135691
  13     -0.32846671170123
 Sym= A
 Ene=               4
 Spin= Alpha
 Occup=    1.00000
   1     -0.20577839950579
   2      0.49191335429681
   3      0.49633465110205
   4    -2.3421336554323e-14
   5    1.4865231638413e-12
   6    0.0079248795211006
   7    -1.9618742513654e-14
   8    6.7324307425316e-13
   9     0.063417757899629
  10      0.10631889652554
  11    0.0086678859303183
  12      0.10631889652409
  13    0.0086678859290641
 Sym= A
 Ene=               5
 Spin= Alpha
 Occup=    1.00000
   1      0.99606640447947
   2     0.022196100082582
   3    -0.0037517197070712
   4    1.4342241961135e-15
   5    3.3276108521048e-14
   6     0.020254553253824
   7    1.2012962019578e-15
   8    1.5108039867064e-14
   9     0.014997411999004
  10    -0.0090995429397599
  11    -0.007504112273612
  12    -0.0090995429397926
  13     -0.00750411227364
 Sym= A
 Ene=               6
 Spin= Alpha
 Occup=    0.00000
   1    3.6728838740417e-15
   2    -3.7146777673753e-14
   3    3.3760049558628e-14
   4    1.0284485352923e-14
   5      0.43562077058305
   6    1.4452630382338e-14
   7    -1.0857774274836e-14
   8      0.74733764936928
   9    -6.9912588189242e-16
  10     -0.06295966732872
  11      -1.2970164967695
  12     0.062959667328752
  13       1.2970164967695
 Sym= A
 Ene=               7
 Spin= Alpha
 Occup=    0.00000
   1    7.9040755494057e-14
   2    -1.5203101255454e-12
   3    2.2242130944592e-12
   4     -0.97091519904508
   5    1.1362294666916e-13
   6    -1.4197702552078e-14
   7       1.0295465906201
   8    7.7490503614665e-13
   9    -2.8909064434833e-13
  10    -1.1030589913293e-12
  11    -3.4527226796685e-14
  12    1.0400186283589e-12
  13    -1.1779822822307e-12
 Sym= A
 Ene=               8
 Spin= Alpha
 Occup=    0.00000
   1    -0.013507806062189
   2    -0.0055683188415851
   3      0.31512353995246
   4    3.3425049982971e-13
   5     -0.35222000075129
   6      0.83116069295264
   7    -3.545932595587e-13
   8      0.89590339840359
   9     -0.93257831634953
  10     -0.23522673207897
  11     -0.51324655955838
  12      0.45167443633545
  13      -0.1473331504739
 Sym= A
 Ene=               9
 Spin= Alpha
 Occup=    0.00000
   1     0.074674601365993
   2     -0.21420117246834
   3     -0.25424013004505
   4    1.0867559257059e-13
   5     -0.11497659936687
   6    -0.0099806948921017
   7    -1.1500477814301e-13
   8     0.087411444608215
   9      0.72342087267237
  10       1.1537904886578
  11     -0.52768817213593
  12      0.91591293485845
  13     -0.20082970471777
 Sym= A
 Ene=              10
 Spin= Alpha
 Occup=    0.00000
   1    -0.024098239174089
   2      0.45498110538797
   3     -0.71223288301439
   4    -6.4987585827272e-13
   5      -0.8843563678045
   6      -0.2240437350517
   7    6.8925800839776e-13
   8       1.0681575947178
   9      0.29193842897347
  10      0.37901169121617
  11     -0.76648826866571
  12     -0.55858346492197
  13       1.3471860290463
 Sym= A
 Ene=              11
 Spin= Alpha
 Occup=    0.00000
   1      0.06689770292342
   2      -1.6759470968861
   3       2.6406191400303
   4     7.03832733244e-13
   5     -0.22739899455119
   6     0.023041427219289
   7    -7.4636523064033e-13
   8      0.29230970701539
   9     -0.59541286753753
  10     -0.25048426184531
  11     -0.85921669574383
  12     -0.45179709292188
  13     -0.33356998069566
 Sym= A
 Ene=              12
 Spin= Alpha
 Occup=    0.00000
   1      0.01150910557634
   2     0.027026877289054
   3     -0.26540925284522
   4    9.0435629433677e-13
   5     -0.19730887044905
   6     -0.50027637853571
   7    -9.5922446048239e-13
   8       1.0218121424572
   9       0.6209297225558
  10     -0.76739932250764
  11        0.348328678142
  12      0.78918670399387
  13      0.02735956449886
