[Molden Format]
made by pyscf v[2.11.0]
[Atoms] (AU)
O   1   8     0.00000000000000     0.00000000000000     0.22166487441148
H   2   1     0.00000000000000     1.43090062152066    -0.88665949764593
H   3   1     0.00000000000000    -1.43090062152066    -0.88665949764593
[GTO]
1 0
 s    6 1.00
             5484.6717   0.001831099805527
             825.23495   0.013950098518422
             188.04696    0.06844509273075
               52.9645    0.23271427528445
              16.89757    0.47019295006289
             5.7996353    0.35852086192309
 s    3 1.00
             15.539616   -0.11077750382508
             3.5999336   -0.14802630511126
             1.0137618     1.1307670390447
 s    1 1.00
             0.2700058                   1
 p    3 1.00
             15.539616   0.070874299543311
             3.5999336    0.33975279781076
             1.0137618    0.72715859531445
 p    1 1.00
             0.2700058                   1

2 0
 s    3 1.00
             18.731137    0.03349459952309
             2.8253937    0.23472694665786
             0.6401217    0.81375731841339
 s    1 1.00
             0.1612778                   1

3 0
 s    3 1.00
             18.731137    0.03349459952309
             2.8253937    0.23472694665786
             0.6401217    0.81375731841339
 s    1 1.00
             0.1612778                   1

[5d]
[7f]
[9g]

[MO]
 Sym= A
 Ene=               0
 Spin= Alpha
 Occup=    1.00000
   1    -1.4757916727094e-15
   2    2.8465354107827e-15
   3    7.7051097779819e-15
   4      0.62260816691624
   5    -2.5551457501181e-13
   6    1.6226262692304e-14
   7      0.53028085087881
   8    -1.2626726405276e-13
   9    1.1878206111119e-14
  10    -1.2602736771279e-13
  11    -8.5790633534675e-14
  12    1.1667868155829e-13
  13    7.9778730087982e-14
 Sym= A
 Ene=               1
 Spin= Alpha
 Occup=    1.00000
   1    1.2364298601068e-13
   2    -1.3019535454155e-13
   3    -1.3570265114243e-13
   4    3.0978806402496e-13
   5      0.51285261144915
   6    1.4399147845283e-14
   7    2.6402377487678e-13
   8      0.25432400896985
   9    -1.0855506963917e-15
  10      0.24332283099092
  11      0.16654452884044
  12       -0.243322830991
  13     -0.16654452884044
 Sym= A
 Ene=               2
 Spin= Alpha
 Occup=    1.00000
   1    -0.073137778480246
   2      0.15375245584916
   3      0.34638481550099
   4    -1.820324536823e-14
   5    9.5991736816868e-15
   6      0.54154179079356
   7    -1.5497249753379e-14
   8    2.0574072523543e-15
   9      0.39854114464826
  10     -0.14628260773201
  11     -0.10876342549713
  12     -0.14628260773203
  13     -0.10876342549714
 Sym= A
 Ene=               3
 Spin= Alpha
 Occup=    1.00000
   1     -0.23787335157125
   2      0.46379894188712
   3      0.47219125662186
   4    2.4155108342313e-15
   5    1.4385386654986e-13
   6     -0.10077200173638
   7    2.0382688058244e-15
   8    7.2067304254418e-14
   9    -0.036190883677524
  10      0.13928294543341
  11    0.0059008817743769
  12      0.13928294543327
  13    0.0059008817742855
 Sym= A
 Ene=               4
 Spin= Alpha
 Occup=    1.00000
   1      0.98949835127301
   2     0.039279701269519
   3    -0.0014373041309592
   4    1.7893403834608e-16
   5     -2.8958520169e-14
   6    -0.003794052420406
   7    1.5211920665664e-16
   8    -1.4311936000236e-14
   9    0.0015891453151867
  10    0.0034959635880724
  11    0.0031251478284397
  12    0.0034959635880998
  13    0.0031251478284585
 Sym= A
 Ene=               5
 Spin= Alpha
 Occup=    1.00000
   1    -8.327362828294e-13
   2    1.4288269107878e-12
   3    1.0202994000003e-11
   4    -5.4516174705146e-15
   5     -0.46202929361621
   6    -2.4252408583521e-12
   7    5.2709860885078e-15
   8     -0.70145809226806
   9    -4.2649023700111e-12
  10      0.11124912073263
  11       1.2413933256556
  12     -0.11124912073389
  13      -1.2413933256732
 Sym= A
 Ene=               6
 Spin= Alpha
 Occup=    0.00000
   1    2.5980287586561e-12
   2    -3.9455581829968e-12
   3    -3.2195399097813e-11
   4     -0.97386107097963
   5    7.8225390778104e-13
   6    8.4079089839093e-12
   7       1.0270581941992
   8    -1.7120908898713e-14
   9    1.3089338850916e-11
  10    2.0513827816054e-12
  11    2.7742062760812e-11
  12    5.2145217289999e-12
  13    2.4546409477204e-11
 Sym= A
 Ene=               7
 Spin= Alpha
 Occup=    0.00000
   1    -0.091548718524538
   2      0.14143327674634
   3       1.1416422579476
   4    -2.7112376481668e-11
   5     0.012479328571347
   6     -0.28464788077886
   7    2.8593209166697e-11
   8     0.023593995782013
   9     -0.46668317211989
  10     -0.15633581771292
  11     -0.90676539111154
  12    -0.048681450626272
  13     -0.98727353495785
 Sym= A
 Ene=               8
 Spin= Alpha
 Occup=    0.00000
   1     0.084130425962661
   2      -1.2277271024616
   3       1.5194465760531
   4    1.4643228827388e-12
   5      0.22806883778969
   6     -0.37551895073325
   7    -1.5442003725216e-12
   8    -0.024179051571968
   9      0.34252228419038
  10     -0.31352560071415
  11     0.084764025275185
  12        0.568132827336
  13     -0.83183330620931
 Sym= A
 Ene=               9
 Spin= Alpha
 Occup=    0.00000
   1     0.019634466382554
   2     -0.96494216933981
   3       1.8879258420063
   4    4.3584484062635e-13
   5    -0.018012666410574
   6       0.8646678621584
   7    -4.5960181527303e-13
   8     0.084718775854176
   9      -1.3550752903031
  10     -0.24213204766638
  11     -0.65319190392344
  12     -0.11431380772075
  13     -0.68167944659031
 Sym= A
 Ene=              10
 Spin= Alpha
 Occup=    0.00000
   1     0.056169437666931
   2     -0.31982357294889
   3      0.16950461625704
   4    -1.5852860351725e-12
   5     -0.15915572428474
   6     0.055251466336001
   7    1.6717476905515e-12
   8     -0.27021380138542
   9      0.37199278573543
  10       1.3915434358869
  11     -0.91383561737356
  12     0.091753762782241
  13     0.075537705447668
 Sym= A
 Ene=              11
 Spin= Alpha
 Occup=    0.00000
   1    0.0099311573206135
   2    -0.087247174951068
   3     0.062889447741633
   4    -1.0554245329036e-13
   5      -0.9298808141642
   6    -0.062910159453428
   7    1.1128761650904e-13
   8       1.7400403468008
   9       0.1044672199191
  10     -0.10349029316765
  11     -0.89199084131697
  12      0.21572319679998
  13      0.84550120999899
 Sym= A
 Ene=              12
 Spin= Alpha
 Occup=    0.00000
   1    0.0026995847504864
   2      0.71992056151316
   3      -1.3485505106425
   4    2.3538175584168e-12
   5      0.17894876193688
   6      0.30771934437394
   7    -2.4822172202136e-12
   8      0.15851655520997
   9      0.33329964573388
  10      0.22069111428464
  11      0.44905271726576
  12       1.3356673878568
  13     -0.48635257392001
