[Molden Format]
made by pyscf v[2.11.0]
[Atoms] (AU)
O   1   8     0.00000000000000     0.00000000000000     0.22166487441148
H   2   1     0.00000000000000     1.43090062152066    -0.88665949764593
H   3   1     0.00000000000000    -1.43090062152066    -0.88665949764593
[GTO]
1 0
 s    6 1.00
             5484.6717   0.001831099805527
             825.23495   0.013950098518422
             188.04696    0.06844509273075
               52.9645    0.23271427528445
              16.89757    0.47019295006289
             5.7996353    0.35852086192309
 s    3 1.00
             15.539616   -0.11077750382508
             3.5999336   -0.14802630511126
             1.0137618     1.1307670390447
 s    1 1.00
             0.2700058                   1
 p    3 1.00
             15.539616   0.070874299543311
             3.5999336    0.33975279781076
             1.0137618    0.72715859531445
 p    1 1.00
             0.2700058                   1

2 0
 s    3 1.00
             18.731137    0.03349459952309
             2.8253937    0.23472694665786
             0.6401217    0.81375731841339
 s    1 1.00
             0.1612778                   1

3 0
 s    3 1.00
             18.731137    0.03349459952309
             2.8253937    0.23472694665786
             0.6401217    0.81375731841339
 s    1 1.00
             0.1612778                   1

[5d]
[7f]
[9g]

[MO]
 Sym= A
 Ene=               0
 Spin= Alpha
 Occup=    1.00000
   1    3.6152720047818e-15
   2    -7.8657693906983e-15
   3    -9.1970648335962e-15
   4      0.64622412089087
   5    1.0655044503076e-14
   6    -4.7840468378783e-15
   7      0.50502032483335
   8    4.4600140143836e-15
   9    -3.8376918531234e-15
  10    5.4375907125905e-15
  11    4.1322415617041e-15
  12    -5.6740970587858e-15
  13    -1.9924616344216e-15
 Sym= A
 Ene=               1
 Spin= Alpha
 Occup=    1.00000
   1    2.5758154577759e-13
   2    -3.8766336295452e-13
   3    -8.5273147968005e-13
   4    -1.328987978144e-14
   5      0.51677794293709
   6    -1.4792040872363e-12
   7    -1.0093137880163e-14
   8      0.23365583464215
   9    -1.00865559246e-12
  10      0.26763986173866
  11      0.14942017009305
  12     -0.26763986173782
  13      -0.1494201700925
 Sym= A
 Ene=               2
 Spin= Alpha
 Occup=    1.00000
   1    -0.085725479920151
   2      0.18597215805377
   3      0.35911387170573
   4    7.5654995378745e-15
   5    1.3631995469857e-12
   6      0.54998530130523
   7    5.8620566525289e-15
   8    6.1713663029431e-13
   9      0.37839504551091
  10     -0.14679240042193
  11     -0.10341295736356
  12     -0.14679240042334
  13     -0.10341295736434
 Sym= A
 Ene=               3
 Spin= Alpha
 Occup=    1.00000
   1     -0.22029430208691
   2      0.46973717149002
   3      0.45961643165981
   4    7.6548340838336e-15
   5    -1.0971722965778e-13
   6      -0.1351600084932
   7    5.9732658553925e-15
   8    -4.8236088321403e-14
   9    -0.057040125538177
  10      0.14706775804938
  11    -0.003341644762235
  12      0.14706775804949
  13    -0.0033416447621681
 Sym= A
 Ene=               4
 Spin= Alpha
 Occup=    1.00000
   1      0.99307675600923
   2     0.032198203078181
   3    -0.0086687597206997
   4    -9.651884329331e-18
   5    -4.0669987398633e-14
   6     -0.00222579596389
   7    -6.8615323692644e-18
   8    -1.8377693016671e-14
   9    0.0030039973689647
  10    0.0010276016350823
  11    0.0028537339739653
  12    0.0010276016351244
  13    0.0028537339739889
 Sym= A
 Ene=               5
 Spin= Alpha
 Occup=    0.00000
   1    -3.2625002785981e-14
   2    5.7831219585482e-14
   3    4.1265670003537e-13
   4    -4.4539452286678e-15
   5      0.44810029916973
   6    -1.32975631585e-13
   7    5.0346012960857e-15
   8      0.72121480950708
   9    -1.3769552404922e-13
  10     -0.11404267551419
  11      -1.2529182692788
  12      0.11404267551415
  13        1.252918269278
 Sym= A
 Ene=               6
 Spin= Alpha
 Occup=    0.00000
   1    3.4313549534033e-13
   2    -7.5354126735467e-13
   3    -4.4156527492666e-12
   4     -0.95835311898027
   5    9.1813898527384e-13
   6    1.6904776683616e-12
   7       1.0397118767166
   8    -3.4417006809758e-13
   9    8.6476791344348e-13
  10    -2.1196544940912e-12
  11    6.3147234089272e-12
  12    7.2953683962034e-13
  13    3.0027568230824e-12
 Sym= A
 Ene=               7
 Spin= Alpha
 Occup=    0.00000
   1    -0.026514370835818
   2     -0.29323732307877
   3       1.1250305137843
   4    -3.402696287109e-12
   5      0.17598435134041
   6     -0.20032977458134
   7    3.6917027633734e-12
   8     -0.92997360584296
   9     -0.24493504365975
  10        0.687948004049
  11     -0.85371644856167
  12     -0.75428971029262
  13     -0.46914286055791
 Sym= A
 Ene=               8
 Spin= Alpha
 Occup=    0.00000
   1     0.055881651848174
   2     -0.63130881495338
   3      0.46603666759369
   4    6.0066701556278e-13
   5      0.31997134466907
   6     -0.77391028307621
   7    -6.5176233200187e-13
   8     -0.35226327911265
   9      0.87495323797781
  10     -0.28748937169012
  11      0.59860082528318
  12      0.16666792603062
  13     -0.27459579732477
 Sym= A
 Ene=               9
 Spin= Alpha
 Occup=    0.00000
   1    -0.0093353893004033
   2     -0.47129348478537
   3       1.2544567454863
   4    -2.6363481507818e-12
   5     -0.75346435568122
   6      -0.2524169136928
   7    2.8600081400459e-12
   8       1.4026299654396
   9     -0.14817034736505
  10     -0.14375657479072
  11      -1.3286217824237
  12      0.10397397042426
  13     0.054332631000855
 Sym= A
 Ene=              10
 Spin= Alpha
 Occup=    0.00000
   1     0.099535185990115
   2     -0.27246067123588
   3     -0.60145034591013
   4    6.0596388789237e-13
   5     -0.21847874732077
   6      0.17324035573494
   7    -6.5750984243422e-13
   8      0.12671979103005
   9      0.72739119054909
  10       1.1954027186739
  11      -0.3136832876969
  12      0.62374335150812
  13      0.41622963895584
 Sym= A
 Ene=              11
 Spin= Alpha
 Occup=    0.00000
   1    0.0085379910238475
   2     -0.45516090976334
   3       1.1419469950683
   4    -1.0051624086109e-12
   5      0.48241352596442
   6      0.31049352991992
   7    1.0904481631699e-12
   8     -0.37872406090184
   9     -0.47040523755561
  10     -0.12458645527133
  11     -0.10956123917063
  12       0.9103299455488
  13      -1.6050519198891
 Sym= A
 Ene=              12
 Spin= Alpha
 Occup=    0.00000
   1     0.064594362020166
   2      -1.4431110240875
   3       2.0755570800415
   4    1.992696405105e-12
   5    -0.040573442305751
   6      0.47420355369376
   7    -2.1617914000048e-12
   8    -0.019476153269787
   9     -0.92062833898711
  10      -0.3750402379273
  11     -0.32170265118825
  12     -0.58004744905919
  13     -0.13562942527446
