[Molden Format]
made by pyscf v[2.11.0]
[Atoms] (AU)
O   1   8     0.00000000000000     0.00000000000000     0.22166487441148
H   2   1     0.00000000000000     1.43090062152066    -0.88665949764593
H   3   1     0.00000000000000    -1.43090062152066    -0.88665949764593
[GTO]
1 0
 s    6 1.00
             5484.6717   0.001831099805527
             825.23495   0.013950098518422
             188.04696    0.06844509273075
               52.9645    0.23271427528445
              16.89757    0.47019295006289
             5.7996353    0.35852086192309
 s    3 1.00
             15.539616   -0.11077750382508
             3.5999336   -0.14802630511126
             1.0137618     1.1307670390447
 s    1 1.00
             0.2700058                   1
 p    3 1.00
             15.539616   0.070874299543311
             3.5999336    0.33975279781076
             1.0137618    0.72715859531445
 p    1 1.00
             0.2700058                   1

2 0
 s    3 1.00
             18.731137    0.03349459952309
             2.8253937    0.23472694665786
             0.6401217    0.81375731841339
 s    1 1.00
             0.1612778                   1

3 0
 s    3 1.00
             18.731137    0.03349459952309
             2.8253937    0.23472694665786
             0.6401217    0.81375731841339
 s    1 1.00
             0.1612778                   1

[5d]
[7f]
[9g]

[MO]
 Sym= A
 Ene=               0
 Spin= Alpha
 Occup=    1.00000
   1    -0.095699106358993
   2      0.21253448017347
   3      0.38471605030279
   4    6.2634246839242e-14
   5    -1.0395705091857e-14
   6      0.54137590852797
   7    4.8897530515159e-14
   8    -3.843383949844e-15
   9      0.37453295383101
  10     -0.13816423001974
  11     -0.10342788835199
  12     -0.13816423001973
  13     -0.10342788835198
 Sym= A
 Ene=               1
 Spin= Alpha
 Occup=    1.00000
   1    7.1490949015502e-15
   2    -1.7106249393831e-14
   3    -1.5605746813397e-14
   4    -1.2737705653575e-13
   5      0.51677794293709
   6    1.9335612730928e-14
   7    -9.9251591118266e-14
   8      0.23365583464215
   9    1.2677961354922e-14
  10      0.26763986173823
  11      0.14942017009278
  12     -0.26763986173825
  13     -0.14942017009278
 Sym= A
 Ene=               2
 Spin= Alpha
 Occup=    1.00000
   1    1.8328992711763e-14
   2    -3.2421351659304e-14
   3    -4.8165271362364e-14
   4      0.64622412089087
   5    1.0189146655464e-13
   6    -4.8146510373754e-14
   7      0.50502032483335
   8    4.5711624373492e-14
   9    -3.4354123221988e-14
  10    6.2110300791485e-14
  11    3.9231543190235e-14
  12    -4.3504272472997e-14
  13    -1.9653003524449e-14
 Sym= A
 Ene=               3
 Spin= Alpha
 Occup=    1.00000
   1     -0.20675798561154
   2      0.45861614849357
   3      0.43829509855882
   4    1.6588630729405e-14
   5    2.4853216777528e-14
   6     -0.16632622555378
   7    1.2957866905126e-14
   8    1.2561873993117e-14
   9    -0.078504749519772
  10       0.1552051232382
  11    0.0025866211497152
  12      0.15520512323818
  13     0.002586621149704
 Sym= A
 Ene=               4
 Spin= Alpha
 Occup=    1.00000
   1      0.99507421692719
   2     0.027851413077207
   3    -0.013272215979626
   4    -2.4355040275895e-15
   5    4.8383442506842e-16
   6    -0.0021739535206186
   7    -1.902474983735e-15
   8    2.164261451611e-16
   9    0.0027351757270567
  10    7.4218029700132e-05
  11    0.0030873030537833
  12    7.4218029699628e-05
  13     0.003087303053783
 Sym= A
 Ene=               5
 Spin= Alpha
 Occup=    0.00000
   1    -0.089626040865684
   2      0.17632470682979
   3       1.0662543964475
   4    2.4749369686467e-15
   5    2.0602766842516e-14
   6      -0.2830914344018
   7    -2.6702143600497e-15
   8    4.6984738201117e-14
   9     -0.44814814497518
  10    -0.097965542535571
  11     -0.93214575549408
  12    -0.097965542535528
  13     -0.93214575549399
 Sym= A
 Ene=               6
 Spin= Alpha
 Occup=    0.00000
   1    5.0991589372932e-15
   2    -4.9527012416862e-14
   3    2.2232305660169e-14
   4    -5.8892889517304e-14
   5      0.58246569716896
   6    1.1713460158922e-14
   7    6.4082348496684e-14
   8      0.59816767226092
   9    -3.5889478756446e-15
  10     -0.27086606185884
  11      -1.0019844156404
  12       0.2708660618588
  13       1.0019844156404
 Sym= A
 Ene=               7
 Spin= Alpha
 Occup=    0.00000
   1    -4.8853668629362e-15
   2    4.0674805037732e-14
   3    -3.6927532466424e-15
   4     -0.95835311898027
   5    -4.7499637057097e-14
   6    1.2346585906295e-13
   7       1.0397118767166
   8    8.6447321981919e-14
   9    -1.4253237534048e-13
  10    -1.3334130704713e-13
  11    1.3752271893164e-13
  12    1.4578116706942e-13
  13    -2.057497942598e-13
 Sym= A
 Ene=               8
 Spin= Alpha
 Occup=    0.00000
   1     0.074951059950503
   2      -1.1529606626156
   3       1.7151742200726
   4    4.4219201893032e-14
   5    2.0683884316675e-12
   6      0.57265985537399
   7    -4.8012419148206e-14
   8    -3.9924152520634e-12
   9     -0.56193256090713
  10      0.50517625547735
  11      -0.8627992738269
  12       0.5051762554772
  13     -0.86279927383191
 Sym= A
 Ene=               9
 Spin= Alpha
 Occup=    0.00000
   1     0.066379163426487
   2     -0.72814426348909
   3      0.62978941386118
   4    -1.1737038837281e-13
   5    8.5906464034269e-12
   6     -0.80042002406524
   7    1.2719516367064e-13
   8    -1.7968102932464e-11
   9      0.97473652406708
  10      0.16928432917756
  11    -0.059343594484862
  12      0.16928432917259
  13    -0.059343594502175
 Sym= A
 Ene=              10
 Spin= Alpha
 Occup=    0.00000
   1    0.0017726324057934
   2      0.64836022236851
   3      -1.2738255618712
   4    -1.2199144252582e-13
   5     -0.14694814669341
   6    -0.043528076746547
   7    1.3242106784824e-13
   8     -0.20398491827678
   9      0.59046883433554
  10       1.3221079762506
  11     -0.65386853422957
  12     -0.17626322086053
  13      0.90064953164956
 Sym= A
 Ene=              11
 Spin= Alpha
 Occup=    0.00000
   1    -9.7803690924175e-05
   2    -0.035772799332346
   3     0.070282390299795
   4    4.0082827178612e-14
   5     -0.90436477080617
   6    0.0024016296750379
   7    -4.3603508803321e-14
   8       1.7849942303352
   9    -0.032578684476482
  10     -0.12968204376303
  11       -1.046588044234
  12     0.066460900528614
  13       1.0329720838527
 Sym= A
 Ene=              12
 Spin= Alpha
 Occup=    0.00000
   1    -0.0023809232920752
   2     -0.87084944963168
   3       1.7109474813726
   4    -9.7054542551889e-14
   5    -0.072255512859041
   6     0.058465032819813
   7    1.054803986143e-13
   8     -0.22519385807754
   9     -0.79309223741415
  10     -0.20771631357208
  11     -0.70170142974398
  12      -1.3313328757072
  13      0.37023585186168
