[Molden Format]
made by pyscf v[2.11.0]
[Atoms] (AU)
O   1   8     0.00000000000000     0.00000000000000     0.22166487441148
H   2   1     0.00000000000000     1.43090062152066    -0.88665949764593
H   3   1     0.00000000000000    -1.43090062152066    -0.88665949764593
[GTO]
1 0
 s    6 1.00
             5484.6717   0.001831099805527
             825.23495   0.013950098518422
             188.04696    0.06844509273075
               52.9645    0.23271427528445
              16.89757    0.47019295006289
             5.7996353    0.35852086192309
 s    3 1.00
             15.539616   -0.11077750382508
             3.5999336   -0.14802630511126
             1.0137618     1.1307670390447
 s    1 1.00
             0.2700058                   1
 p    3 1.00
             15.539616   0.070874299543311
             3.5999336    0.33975279781076
             1.0137618    0.72715859531445
 p    1 1.00
             0.2700058                   1

2 0
 s    3 1.00
             18.731137    0.03349459952309
             2.8253937    0.23472694665786
             0.6401217    0.81375731841339
 s    1 1.00
             0.1612778                   1

3 0
 s    3 1.00
             18.731137    0.03349459952309
             2.8253937    0.23472694665786
             0.6401217    0.81375731841339
 s    1 1.00
             0.1612778                   1

[5d]
[7f]
[9g]

[MO]
 Sym= A
 Ene=               0
 Spin= Alpha
 Occup=    1.00000
   1    9.1911643213377e-13
   2    -2.1012887517059e-12
   3    -5.654153942251e-12
   4      0.62719214866231
   5    -3.8457178840133e-14
   6    1.0756026635349e-12
   7      0.52543328103862
   8    -1.7438813181097e-14
   9    1.5751809334573e-12
  10    -1.7406725348852e-13
  11    3.3724462718413e-12
  12    -1.3681166550753e-13
  13    3.4044268989084e-12
 Sym= A
 Ene=               1
 Spin= Alpha
 Occup=    1.00000
   1     -0.19200380813296
   2      0.44626339543505
   3        1.121360922795
   4    3.0221493501553e-12
   5    5.7506435386119e-13
   6     -0.23941633251543
   7    2.5318461951761e-12
   8    2.6718666004178e-13
   9      -0.3216340564163
  10     0.048655496583067
  11     -0.64850524169828
  12     0.048655496582506
  13     -0.64850524169874
 Sym= A
 Ene=               2
 Spin= Alpha
 Occup=    1.00000
   1    -0.045885268127246
   2     0.041224719815267
   3      0.48908263855474
   4    1.9633232164947e-13
   5    0.0016321781178116
   6      0.48561064168131
   7    1.6448411909482e-13
   8    0.00073984672132074
   9      0.26831488271031
  10     -0.18366136813034
  11      -0.3302419978905
  12     -0.18525412322641
  13     -0.33161836776194
 Sym= A
 Ene=               3
 Spin= Alpha
 Occup=    1.00000
   1    -0.033853735766599
   2      0.11941681547245
   3     -0.19019843940157
   4    -3.1430110456701e-14
   5      0.44127385300204
   6      0.14069326988772
   7    -2.628173307352e-14
   8      0.20002413326407
   9      0.21031945389054
  10      0.25693664648797
  11      0.49554209676993
  12     -0.17367884238466
  13      0.12342827555154
 Sym= A
 Ene=               4
 Spin= Alpha
 Occup=    1.00000
   1     0.096097042758618
   2     -0.22150314134952
   3      0.34848661391186
   4    1.582201018628e-13
   5      0.23760948460514
   6     -0.26420735137156
   7    1.3260141857259e-13
   8      0.10770552320318
   9     -0.39186823452068
  10     0.039790489902813
  11     -0.47160187654265
  12      -0.1920798637969
  13     -0.67197126773277
 Sym= A
 Ene=               5
 Spin= Alpha
 Occup=    1.00000
   1      0.99992324797694
   2     0.016822067483853
   3    -0.041890309194198
   4    -3.4617842037051e-15
   5    -0.0078205076908231
   6     0.012619611592585
   7    -2.9022765447738e-15
   8    -0.0035449421303799
   9     0.017237272484947
  10    -0.0068874378524754
  11     0.017886745936666
  12    0.00074417621123016
  13      0.02448155997539
 Sym= A
 Ene=               6
 Spin= Alpha
 Occup=    0.00000
   1     0.092195441119579
   2      -1.1279956794749
   3       1.4315626069879
   4    4.6682552450953e-12
   5    -5.4536506017598e-11
   6      0.35126741375796
   7    -4.9500498900986e-12
   8    -9.4300926270656e-11
   9     -0.14880975855013
  10      0.67281064128054
  11     -0.76849940265327
  12      0.67281064126524
  13     -0.76849940298055
 Sym= A
 Ene=               7
 Spin= Alpha
 Occup=    0.00000
   1    4.5177158165471e-13
   2    -5.4102288902903e-12
   3    6.7403002727962e-12
   4     -0.97091519904508
   5    4.9160212238295e-12
   6    1.5008645473706e-12
   7       1.0295465906201
   8    8.9699744048187e-12
   9    -4.299570014214e-13
  10    2.2817397654727e-12
  11    -1.8448097470474e-11
  12    4.3382455437799e-12
  13      1.1163245826e-11
 Sym= A
 Ene=               8
 Spin= Alpha
 Occup=    0.00000
   1    -0.00053823062252696
   2    -0.021913026494168
   3      0.05102250878565
   4    1.1118977245727e-11
   5      0.41690426086289
   6     0.017970784365611
   7    -1.1790381985962e-11
   8      0.77084508508969
   9    -0.040922329797102
  10    -0.075635249221081
  11      -1.3273015391836
  12     0.034318603374946
  13       1.3077170511404
 Sym= A
 Ene=               9
 Spin= Alpha
 Occup=    0.00000
   1     0.013881330263412
   2     0.074033648024663
   3     -0.33780998875815
   4    5.2364909311357e-13
   5    -0.0079731548761339
   6     -0.32259095876331
   7    -5.5554601382001e-13
   8      0.82978467271341
   9      0.52363861116553
  10     -0.73606314482612
  11      0.47417632868553
  12       1.0605879587752
  13     -0.26992533430894
 Sym= A
 Ene=              10
 Spin= Alpha
 Occup=    0.00000
   1    -0.043720674102468
   2      0.32995670256453
   3    -0.057550818251196
   4    -2.0479461111259e-13
   5      0.20093788222228
   6      0.85448656495989
   7    2.1697361837093e-13
   8     -0.03359345498422
   9      -1.0395006382979
  10     -0.44570394349486
  11      0.22336535467493
  12      0.27330445857322
  13     -0.52171404194804
 Sym= A
 Ene=              11
 Spin= Alpha
 Occup=    0.00000
   1    -0.014043055523642
   2      0.48709120599723
   3     -0.77749026758848
   4    -9.6824329076285e-14
   5     -0.93531141719376
   6      0.16513128331899
   7    1.0273812337962e-13
   8        1.411984802385
   9     0.078772857024112
  10      0.41592555753409
  11     -0.87291599307221
  12      0.10376439623323
  13        1.010544198922
 Sym= A
 Ene=              12
 Spin= Alpha
 Occup=    0.00000
   1     0.012064786568343
   2       -1.199160287521
   3       2.2227538072142
   4    -2.7734335330699e-13
   5     -0.33273873817523
   6     0.082087557661263
   7    2.9389797199766e-13
   8      0.60143872328358
   9     -0.91299244695278
  10     -0.90221510563414
  11     -0.53120691256108
  12      -0.7222609319144
  13    -0.065261559886876
