[Molden Format]
made by pyscf v[2.11.0]
[Atoms] (AU)
O   1   8     0.00000000000000     0.00000000000000     0.22166487441148
H   2   1     0.00000000000000     1.43090062152066    -0.88665949764593
H   3   1     0.00000000000000    -1.43090062152066    -0.88665949764593
[GTO]
1 0
 s    6 1.00
             5484.6717   0.001831099805527
             825.23495   0.013950098518422
             188.04696    0.06844509273075
               52.9645    0.23271427528445
              16.89757    0.47019295006289
             5.7996353    0.35852086192309
 s    3 1.00
             15.539616   -0.11077750382508
             3.5999336   -0.14802630511126
             1.0137618     1.1307670390447
 s    1 1.00
             0.2700058                   1
 p    3 1.00
             15.539616   0.070874299543311
             3.5999336    0.33975279781076
             1.0137618    0.72715859531445
 p    1 1.00
             0.2700058                   1

2 0
 s    3 1.00
             18.731137    0.03349459952309
             2.8253937    0.23472694665786
             0.6401217    0.81375731841339
 s    1 1.00
             0.1612778                   1

3 0
 s    3 1.00
             18.731137    0.03349459952309
             2.8253937    0.23472694665786
             0.6401217    0.81375731841339
 s    1 1.00
             0.1612778                   1

[5d]
[7f]
[9g]

[MO]
 Sym= A
 Ene=               0
 Spin= Alpha
 Occup=    1.00000
   1    9.7586825951496e-15
   2    -2.1727877878767e-14
   3    -3.7424712515185e-14
   4      0.64622412089087
   5    -2.9222937704269e-14
   6    -5.0785719395198e-14
   7      0.50502032483335
   8    -1.3570405712018e-14
   9    -3.5369715508785e-14
  10    -2.5712106456939e-15
  11    1.1561917421554e-15
  12    2.7622802765588e-14
  13    1.8091973095788e-14
 Sym= A
 Ene=               1
 Spin= Alpha
 Occup=    1.00000
   1     -0.15870281258305
   2      0.50491318090532
   3       0.5674955020564
   4    3.1336082730187e-14
   5    5.9932246468519e-13
   6      0.11603331734802
   7    2.4459230330375e-14
   8    2.7254764329444e-13
   9       0.1124842143568
  10     0.068796198909343
  11    -0.047468723482273
  12     0.068796198908722
  13    -0.047468723482614
 Sym= A
 Ene=               2
 Spin= Alpha
 Occup=    1.00000
   1    -0.017426655914978
   2    -0.035678185575252
   3      0.12606665059282
   4    5.086772748624e-14
   5    -0.025524503353909
   6        0.553599755491
   7    3.9696847894852e-14
   8    -0.011540641810461
   9      0.36525800305339
  10     -0.20873433431601
  11    -0.099189463238307
  12      -0.1822959979205
  13    -0.084429252649599
 Sym= A
 Ene=               3
 Spin= Alpha
 Occup=    1.00000
   1    -0.004055370298841
   2    -0.001739405432594
   3    0.0063861975311907
   4    3.9001329767036e-14
   5      0.51614462049946
   6     0.027349757852142
   7    3.0769716104331e-14
   8      0.23336948441227
   9     0.018039574075804
  10      0.25767877015784
  11      0.14468655983601
  12     -0.27694495655269
  13     -0.15378754511197
 Sym= A
 Ene=               4
 Spin= Alpha
 Occup=    1.00000
   1       1.0082525297161
   2    -0.0078803187089863
   3    -0.047963066347277
   4    -2.8818439482838e-16
   5    0.0016348591032944
   6    0.0085196505982605
   7    -2.2278937055334e-16
   8    0.00073918473790012
   9    0.0073400873259396
  10    -0.010382578635836
  11    0.0037292686822613
  12     -0.01207596927043
  13    0.0027838687145162
 Sym= A
 Ene=               5
 Spin= Alpha
 Occup=    0.00000
   1    -0.088058924621572
   2      0.16070417416053
   3       1.0756188046538
   4    1.4644337058855e-15
   5    -1.4562804723104e-13
   6     -0.31062374174089
   7    -1.577799390179e-15
   8    -2.9712877096231e-13
   9     -0.41582159088683
  10    -0.096776611832826
  11     -0.92821598350806
  12     -0.09677661183284
  13     -0.92821598350913
 Sym= A
 Ene=               6
 Spin= Alpha
 Occup=    0.00000
   1    1.9488744633415e-14
   2    -2.1657394857065e-13
   3    2.0078741121784e-13
   4     -0.95835311898027
   5    4.7661262444309e-12
   6    -1.7624538303236e-13
   7       1.0397118767166
   8    7.7268840699347e-12
   9    2.2712233138635e-13
  10    -3.003718654558e-13
  11    -1.4803576192447e-11
  12    4.2691767281433e-13
  13    1.4726949097668e-11
 Sym= A
 Ene=               7
 Spin= Alpha
 Occup=    0.00000
   1    -0.0010410368391331
   2     0.038004892943152
   3    -0.074313351489779
   4    1.0772317593704e-11
   5      0.41688238669773
   6    -0.038313770064304
   7    -1.1686616640643e-11
   8      0.69203236816924
   9     0.054146292033957
  10    -0.028414712555231
  11      -1.2876422042362
  12     0.025316540810619
  13       1.3522395157058
 Sym= A
 Ene=               8
 Spin= Alpha
 Occup=    0.00000
   1     0.072970235785268
   2      -0.7274623762595
   3       0.8254553047019
   4    2.5867201750647e-13
   5     -0.39956710923862
   6       0.2249887499608
   7    -2.8081690681427e-13
   8      0.96445983678741
   9     0.087766310985464
  10      0.43200435955786
  11     -0.92996738845677
  12      0.95885143695913
  13     -0.27591834007311
 Sym= A
 Ene=               9
 Spin= Alpha
 Occup=    0.00000
   1     0.027053630678803
   2      -1.2584931807656
   3       2.2969816603175
   4    3.3677882926828e-13
   5      0.48679535080258
   6      0.41888926379754
   7    -3.6526677594559e-13
   8     -0.56215748794372
   9      -1.0872717444032
  10     -0.67878936540252
  11    -0.063742478158652
  12     -0.22460666710764
  13      -1.0770144172341
 Sym= A
 Ene=              10
 Spin= Alpha
 Occup=    0.00000
   1     0.056012509645344
   2     -0.49816987797518
   3       0.4105286761734
   4    8.1920640756774e-14
   5        0.289339983763
   6     -0.22682748360814
   7    -8.8828645779751e-14
   8      -1.1473434194345
   9      0.49081855175949
  10       1.0653273501082
  11      -0.1822265780161
  12     -0.24868587728569
  13      -0.2884564027018
 Sym= A
 Ene=              11
 Spin= Alpha
 Occup=    0.00000
   1    -0.018910841960406
   2     -0.20717659127091
   3      0.69579518812593
   4    5.1456575024339e-14
   5      -0.6036543537105
   6      0.49655019639679
   7    -5.5713166202153e-14
   8      0.42147912830363
   9     -0.86501216787092
  10      0.36027665933905
  11      -1.0643567302639
  12      -0.9142365126505
  13      0.64137217249521
 Sym= A
 Ene=              12
 Spin= Alpha
 Occup=    0.00000
   1    -0.027540318189886
   2      0.79953738473939
   3      -1.1214383516827
   4    5.7827444388309e-14
   5      0.40672573850721
   6      0.65727839973719
   7    -6.2649341605892e-14
   8     -0.64589232286185
   9     -0.30095726777532
  10      0.50247526561755
  11      0.28551118788903
  12      0.54519259434577
  13     -0.46399919566784
