[Molden Format]
made by pyscf v[2.11.0]
[Atoms] (AU)
O   1   8     0.00000000000000     0.00000000000000     0.22166487441148
H   2   1     0.00000000000000     1.43090062152066    -0.88665949764593
H   3   1     0.00000000000000    -1.43090062152066    -0.88665949764593
[GTO]
1 0
 s    6 1.00
             5484.6717   0.001831099805527
             825.23495   0.013950098518422
             188.04696    0.06844509273075
               52.9645    0.23271427528445
              16.89757    0.47019295006289
             5.7996353    0.35852086192309
 s    3 1.00
             15.539616   -0.11077750382508
             3.5999336   -0.14802630511126
             1.0137618     1.1307670390447
 s    1 1.00
             0.2700058                   1
 p    3 1.00
             15.539616   0.070874299543311
             3.5999336    0.33975279781076
             1.0137618    0.72715859531445
 p    1 1.00
             0.2700058                   1

2 0
 s    3 1.00
             18.731137    0.03349459952309
             2.8253937    0.23472694665786
             0.6401217    0.81375731841339
 s    1 1.00
             0.1612778                   1

3 0
 s    3 1.00
             18.731137    0.03349459952309
             2.8253937    0.23472694665786
             0.6401217    0.81375731841339
 s    1 1.00
             0.1612778                   1

[5d]
[7f]
[9g]

[MO]
 Sym= A
 Ene=               0
 Spin= Alpha
 Occup=    1.00000
   1    -0.052442526975007
   2      0.11515482981609
   3      0.30640889381239
   4    9.280530568825e-13
   5    -1.1898211135377e-10
   6      0.54798758587935
   7    7.9049998594535e-13
   8    -5.9007080185089e-11
   9      0.40016851536228
  10     -0.15723036744484
  11     -0.10887759079302
  12     -0.15723036733194
  13     -0.10887759071575
 Sym= A
 Ene=               1
 Spin= Alpha
 Occup=    1.00000
   1    -1.1631946197138e-11
   2    2.5740528509642e-11
   3    7.0063575973896e-11
   4    2.2500452042321e-12
   5      0.51285261144915
   6    1.2724592050947e-10
   7     1.91633223063e-12
   8      0.25432400896985
   9    9.2843248004548e-11
  10      0.24332283095422
  11      0.16654452881518
  12      -0.2433228310277
  13     -0.16654452886569
 Sym= A
 Ene=               2
 Spin= Alpha
 Occup=    1.00000
   1     -0.22490236070266
   2      0.47550331313696
   3      0.49894357412126
   4    1.0464832425563e-12
   5    1.0545632412739e-12
   6    -0.055998531426793
   7    8.9129484766849e-13
   8    5.2268461246061e-13
   9    -0.0032948197183843
  10      0.12683629294584
  11    -0.0029972508131496
  12      0.12683629294484
  13    -0.0029972508138357
 Sym= A
 Ene=               3
 Spin= Alpha
 Occup=    1.00000
   1      0.99383527946819
   2     0.030465315899914
   3    -0.010862261216491
   4    5.8552863479675e-11
   5    -3.7408114955747e-14
   6    -0.003266885948114
   7    4.9869987724838e-11
   8    -1.8519403432085e-14
   9    0.0012856506189077
  10    0.0013146625698371
  11    0.0032796950493252
  12    0.0013146625698726
  13    0.0032796950493495
 Sym= A
 Ene=               4
 Spin= Alpha
 Occup=    1.00000
   1    -9.3008483679578e-11
   2    -3.8358703080008e-12
   3    -2.7490334285579e-13
   4      0.62260816691624
   5    -1.8536463805643e-12
   6    -4.1528841723293e-13
   7      0.53028085087881
   8    -9.1963237935933e-13
   9    -7.1160735394903e-13
  10    -9.8170125909875e-13
  11    -7.4153107175626e-13
  12    7.7687237570436e-13
  13    4.6080687981297e-13
 Sym= A
 Ene=               5
 Spin= Alpha
 Occup=    1.00000
   1    2.5047379243717e-11
   2    -2.8873510493087e-11
   3    -3.0426892863707e-10
   4    6.8024767147134e-14
   5     -0.43949192972857
   6    7.8840355889699e-11
   7    -7.244008153755e-14
   8     -0.89860424655738
   9    1.4472664277862e-10
  10       0.3573536893708
  11       1.0779913120795
  12     -0.35735368918569
  13      -1.0779913116805
 Sym= A
 Ene=               6
 Spin= Alpha
 Occup=    0.00000
   1     -0.10363744572518
   2        0.114266591671
   3       1.2593711147872
   4    -8.1927507600861e-13
   5    -1.0688387540505e-10
   6     -0.32587876964631
   7    8.6479825538621e-13
   8    -2.1858013716576e-10
   9     -0.60700871636794
  10     -0.40749317587589
  11     -0.80447212398562
  12     -0.40749317604958
  13     -0.80447212451023
 Sym= A
 Ene=               7
 Spin= Alpha
 Occup=    0.00000
   1    1.1363733692498e-13
   2    5.7269167105233e-12
   3    -9.7109037853991e-12
   4    2.8853930527034e-13
   5    -0.099182232156595
   6    -2.1267853867284e-13
   7    -3.0417172025277e-13
   8      -0.2446198391895
   9    7.1220413564779e-12
  10      0.91806201175617
  11       -1.016241290204
  12      -0.9180620117327
  13       1.0162412901943
 Sym= A
 Ene=               8
 Spin= Alpha
 Occup=    0.00000
   1    -2.4834575034283e-13
   2    2.5573770125485e-12
   3    -3.9963643643005e-12
   4    -6.0281905892918e-13
   5     -0.99247564895716
   6    -1.2947615476257e-12
   7    6.3610753195327e-13
   8       1.6609987889628
   9    -3.0955724542843e-14
  10    -0.042185563123497
  11     -0.88107151680226
  12     0.042185563114798
  13      0.88107151681098
 Sym= A
 Ene=               9
 Spin= Alpha
 Occup=    0.00000
   1      0.02808235235581
   2     -0.10324784569402
   3      0.22848541975264
   4     -0.13136874784041
   5    -6.3642185853536e-12
   6       0.3349491275396
   7       0.1385447605945
   8    4.8110648658547e-12
   9     0.014956755475689
  10      0.91819874726506
  11      -0.7591033973116
  12      0.91819874727961
  13     -0.75910339733695
 Sym= A
 Ene=              10
 Spin= Alpha
 Occup=    0.00000
   1    -0.059306190131277
   2      0.54419709935508
   3     -0.36014405557099
   4      0.12475219661967
   5    9.7713326717631e-13
   6      0.84776414607326
   7     -0.13156678052002
   8    -4.732892873345e-13
   9      -1.0602258652267
  10      -0.2310245696324
  11     0.029360085103729
  12     -0.23102456963526
  13     0.029360085109276
 Sym= A
 Ene=              11
 Spin= Alpha
 Occup=    0.00000
   1    -0.0074194205142436
   2    -0.024912537284765
   3     0.099949193170875
   4      -0.9547673251426
   5    1.5095073069329e-12
   6     0.088256916160997
   7       1.0069214532366
   8    -1.7871019974713e-12
   9     -0.20337871272163
  10     -0.17971210084339
  11     0.064827388035625
  12     -0.17971210084692
  13     0.064827388040141
 Sym= A
 Ene=              12
 Spin= Alpha
 Occup=    0.00000
   1     0.063276531342298
   2      -1.6631678547962
   3       2.6925247503174
   4     0.063276235183931
   5    -8.8908162409259e-13
   6      0.35568215681228
   7    -0.066732697075935
   8    1.867908928989e-12
   9     -0.94741720211058
  10     -0.34989122729405
  11     -0.65569839775494
  12     -0.34989122730156
  13     -0.65569839774052
