[Molden Format]
made by pyscf v[2.11.0]
[Atoms] (AU)
O   1   8     0.00000000000000     0.00000000000000     0.22166487441148
H   2   1     0.00000000000000     1.43090062152066    -0.88665949764593
H   3   1     0.00000000000000    -1.43090062152066    -0.88665949764593
[GTO]
1 0
 s    6 1.00
             5484.6717   0.001831099805527
             825.23495   0.013950098518422
             188.04696    0.06844509273075
               52.9645    0.23271427528445
              16.89757    0.47019295006289
             5.7996353    0.35852086192309
 s    3 1.00
             15.539616   -0.11077750382508
             3.5999336   -0.14802630511126
             1.0137618     1.1307670390447
 s    1 1.00
             0.2700058                   1
 p    3 1.00
             15.539616   0.070874299543311
             3.5999336    0.33975279781076
             1.0137618    0.72715859531445
 p    1 1.00
             0.2700058                   1

2 0
 s    3 1.00
             18.731137    0.03349459952309
             2.8253937    0.23472694665786
             0.6401217    0.81375731841339
 s    1 1.00
             0.1612778                   1

3 0
 s    3 1.00
             18.731137    0.03349459952309
             2.8253937    0.23472694665786
             0.6401217    0.81375731841339
 s    1 1.00
             0.1612778                   1

[5d]
[7f]
[9g]

[MO]
 Sym= A
 Ene=               0
 Spin= Alpha
 Occup=    1.00000
   1    -4.4398490789083e-14
   2    8.8967390087406e-14
   3    1.8658195116689e-13
   4      0.62260816691624
   5    -4.4149393403557e-13
   6    2.7280964071737e-13
   7      0.53028085087881
   8    -2.1942818765744e-13
   9    2.0149013039919e-13
  10    -2.8060038637606e-13
  11    -1.9723085915158e-13
  12    1.387352740149e-13
  13    8.7552277006445e-14
 Sym= A
 Ene=               1
 Spin= Alpha
 Occup=    1.00000
   1    7.8904236125793e-15
   2    -1.8757673236312e-14
   3    -7.5102908887846e-14
   4    5.3607287455514e-13
   5      0.51285261144915
   6    -1.6914653708611e-13
   7    4.5640897795799e-13
   8      0.25432400896985
   9    -1.2332352456122e-13
  10      0.24332283099101
  11      0.16654452884047
  12     -0.24332283099091
  13      -0.1665445288404
 Sym= A
 Ene=               2
 Spin= Alpha
 Occup=    1.00000
   1    -0.083301181823006
   2      0.17577623840053
   3       0.3685435395286
   4    -3.1650288934969e-13
   5    1.5247066792433e-13
   6      0.53610520069248
   7    -2.6944048231791e-13
   8    7.686169121547e-14
   9      0.39635892334973
  10     -0.13945820495569
  11     -0.10835379181581
  12     -0.13945820495584
  13      -0.1083537918159
 Sym= A
 Ene=               3
 Spin= Alpha
 Occup=    1.00000
   1     -0.25320185280825
   2       0.4550838568834
   3      0.45505655213117
   4    3.3592367651593e-16
   5    -3.7184579787067e-14
   6     -0.12641703201311
   7    2.5358429968619e-16
   8    -1.6206303888265e-14
   9    -0.055199164210293
  10      0.14601371201375
  11     0.011024769000181
  12      0.14601371201378
  13     0.011024769000212
 Sym= A
 Ene=               4
 Spin= Alpha
 Occup=    1.00000
   1      0.98488049429467
   2     0.047891213442153
   3    0.0069485910215299
   4    1.4189878214697e-15
   5    -8.5035507559448e-16
   6    -0.0068447170210601
   7    1.2077074100503e-15
   8    -3.3244659034828e-16
   9    7.4654339789983e-05
  10    0.0064781902839175
  11    0.0034612061704207
  12    0.0064781902839183
  13    0.0034612061704214
 Sym= A
 Ene=               5
 Spin= Alpha
 Occup=    1.00000
   1    1.2190857361932e-13
   2    -2.1174238256479e-13
   3    -1.48689816264e-12
   4    -2.8264483816565e-13
   5     -0.46202929361621
   6    3.7138192912952e-13
   7    2.9755625796092e-13
   8     -0.70145809226807
   9    6.1099318700075e-13
  10      0.11124912073338
  11       1.2413933256657
  12     -0.11124912073317
  13      -1.2413933256631
 Sym= A
 Ene=               6
 Spin= Alpha
 Occup=    0.00000
   1    -8.5594333160737e-13
   2    1.1764305675932e-12
   3    1.0699727034583e-11
   4     -0.97386107097963
   5    -4.1175464560245e-12
   6    -2.6625987864391e-12
   7       1.0270581941992
   8    5.6886471566708e-12
   9    -4.5759295653256e-12
  10    5.6789390392064e-13
  11    -1.4136081020785e-11
  12    -3.7990393839593e-12
  13    -2.4622526919536e-12
 Sym= A
 Ene=               7
 Spin= Alpha
 Occup=    0.00000
   1    -0.092571596220367
   2      0.17028327089898
   3       1.1015045104817
   4    8.7132254178426e-12
   5    -0.0001442575486664
   6     -0.26149634346777
   7    -9.1888704526022e-12
   8    0.0047929058611066
   9     -0.47634476181414
  10    -0.088174014236297
  11     -0.94834145894082
  12    -0.077339899584228
  13     -0.95358186665643
 Sym= A
 Ene=               8
 Spin= Alpha
 Occup=    0.00000
   1     0.070228655476252
   2      -1.4034026342918
   3        1.987737013162
   4    -3.8556849631272e-13
   5     0.089998754257257
   6      -0.4704328228679
   7    4.0658978800704e-13
   8     0.037255055446951
   9       0.1311756665617
  10     -0.46242247542118
  11     -0.15067071667228
  12    -0.0029275249351316
  13     -0.56937944803399
 Sym= A
 Ene=               9
 Spin= Alpha
 Occup=    0.00000
   1    0.0013088437501164
   2     -0.68789313484424
   3       1.4952100337987
   4    -1.140308277884e-12
   5      0.11719538079588
   6      0.80927573849749
   7    1.2023740588396e-12
   8      0.14218247883024
   9      -1.2990037441012
  10     -0.68609550151095
  11     -0.16341345252439
  12      0.13559974686007
  13     -0.82276099245711
 Sym= A
 Ene=              10
 Spin= Alpha
 Occup=    0.00000
   1      0.06421392339777
   2     -0.11064090176841
   3     -0.31176941261422
   4    -1.1708893991728e-12
   5     0.010782502016976
   6      0.16045101324896
   7    1.234716460939e-12
   8      0.18291894348844
   9      0.53028901374796
  10      0.79311107700387
  11     -0.26569362541538
  12       1.2736727514998
  13     -0.53325562871176
 Sym= A
 Ene=              11
 Spin= Alpha
 Occup=    0.00000
   1    0.00071481629662539
   2    -0.080899744126876
   3      0.14900309189635
   4    3.7794651179375e-12
   5     -0.96128169786306
   6    0.00062394608832577
   7    -3.9858729938985e-12
   8       1.7088659198668
   9     -0.05850891237688
  10     -0.11812713475089
  11     -0.96834550122051
  12    -0.0025720822321257
  13      0.93737783973639
 Sym= A
 Ene=              12
 Spin= Alpha
 Occup=    0.00000
   1    -0.038448844045287
   2      0.77207312691555
   3      -1.2280629265373
   4    -1.9264556671949e-12
   5      0.16886029205038
   6     -0.31785452879811
   7    2.0312892093651e-12
   8      0.39861402261475
   9       0.4642979447468
  10     -0.91752908465542
  11       1.0636805727696
  12      0.72838784039523
  13     -0.12236770136994
