[Molden Format]
made by pyscf v[2.11.0]
[Atoms] (AU)
O   1   8     0.00000000000000     0.00000000000000     0.22166487441148
H   2   1     0.00000000000000     1.43090062152066    -0.88665949764593
H   3   1     0.00000000000000    -1.43090062152066    -0.88665949764593
[GTO]
1 0
 s    6 1.00
             5484.6717   0.001831099805527
             825.23495   0.013950098518422
             188.04696    0.06844509273075
               52.9645    0.23271427528445
              16.89757    0.47019295006289
             5.7996353    0.35852086192309
 s    3 1.00
             15.539616   -0.11077750382508
             3.5999336   -0.14802630511126
             1.0137618     1.1307670390447
 s    1 1.00
             0.2700058                   1
 p    3 1.00
             15.539616   0.070874299543311
             3.5999336    0.33975279781076
             1.0137618    0.72715859531445
 p    1 1.00
             0.2700058                   1

2 0
 s    3 1.00
             18.731137    0.03349459952309
             2.8253937    0.23472694665786
             0.6401217    0.81375731841339
 s    1 1.00
             0.1612778                   1

3 0
 s    3 1.00
             18.731137    0.03349459952309
             2.8253937    0.23472694665786
             0.6401217    0.81375731841339
 s    1 1.00
             0.1612778                   1

[5d]
[7f]
[9g]

[MO]
 Sym= A
 Ene=               0
 Spin= Alpha
 Occup=    1.00000
   1    -0.084828123695572
   2      0.12363017164981
   3       1.1213028362429
   4    -4.7258245031073e-14
   5    -8.9116130410773e-14
   6     -0.29537550907165
   7    -3.9755899462555e-14
   8    -2.8218074533522e-14
   9     -0.49219681389817
  10     -0.06108194982888
  11     -0.96050010321662
  12    -0.061081949828795
  13     -0.96050010321648
 Sym= A
 Ene=               1
 Spin= Alpha
 Occup=    1.00000
   1     0.020883949259972
   2      -0.0531293605457
   3      0.21892368935462
   4    -7.6973256620395e-13
   5    2.266197385591e-12
   6      0.53280498527257
   7    -6.4486816557659e-13
   8    1.0253618709573e-12
   9      0.34235619658617
  10     -0.18884813324879
  11     -0.16490079498058
  12     -0.18884813325101
  13     -0.16490079498249
 Sym= A
 Ene=               2
 Spin= Alpha
 Occup=    1.00000
   1    -7.1610000680022e-14
   2    1.6154515509099e-13
   3    -9.0139765075619e-13
   4    4.4102536139887e-13
   5      0.50124315941819
   6    -2.4881008091708e-12
   7    3.6929052765195e-13
   8      0.22720749900563
   9    -1.6660835037633e-12
  10      0.24456815951053
  11      0.21134212478518
  12     -0.24456815950887
  13     -0.21134212478402
 Sym= A
 Ene=               3
 Spin= Alpha
 Occup=    1.00000
   1     -0.28787168507464
   2      0.49286334432632
   3       0.5918681745411
   4    3.6956723646276e-12
   5    1.0327811567828e-13
   6      0.10848000265448
   7    3.0960356795852e-12
   8    4.6183107954179e-14
   9      0.11838788584904
  10     0.067136037080622
  11     -0.05908185399562
  12      0.06713603708052
  13    -0.059081853995707
 Sym= A
 Ene=               4
 Spin= Alpha
 Occup=    1.00000
   1    -0.028072613367412
   2    -0.0016806350060898
   3    -0.00062140155131276
   4      0.62693431202331
   5    -3.5244519259271e-13
   6    -3.5070466058095e-05
   7      0.52521727713695
   8    -1.5981327136154e-13
   9    -0.00020732805303942
  10    -0.00015850026032051
  11    -1.2209461595206e-05
  12    -0.00015850025997606
  13    -1.2209461297751e-05
 Sym= A
 Ene=               5
 Spin= Alpha
 Occup=    1.00000
   1      0.97872775094525
   2     0.058593907704396
   3     0.021664635624915
   4     0.017982206525025
   5    3.2840678987127e-16
   6    0.0012227019234334
   7     0.015064681206405
   8    1.1945676144229e-16
   9     0.007228315942052
  10    0.0055259765266857
  11    0.00042567247503543
  12    0.0055259765266854
  13    0.00042567247503508
 Sym= A
 Ene=               6
 Spin= Alpha
 Occup=    0.00000
   1    4.1035704327065e-15
   2    -5.4697328286108e-14
   3     6.45905794313e-14
   4    7.5525412422598e-15
   5      0.40088898484474
   6    3.8247853030031e-14
   7    -8.2034230407764e-15
   8      0.79399807919072
   9    -3.2275280951465e-14
  10    -0.050830455046805
  11      -1.3346434296852
  12     0.050830455046822
  13       1.3346434296852
 Sym= A
 Ene=               7
 Spin= Alpha
 Occup=    0.00000
   1    -2.3626251720737e-13
   2    1.8163327984468e-12
   3    -2.1528861711409e-12
   4    -7.2974637963906e-14
   5     -0.51767783954893
   6    -3.3934356050241e-12
   7    7.7369344689165e-14
   8     0.015376764807997
   9    1.8018265105902e-12
  10      0.92522060646609
  11     -0.87112001387719
  12     -0.92522060647343
  13      0.87112001388311
 Sym= A
 Ene=               8
 Spin= Alpha
 Occup=    0.00000
   1     0.076539997120645
   2     -0.45567091743486
   3       0.2631987237943
   4    -1.5115133332624e-12
   5    -1.496631836841e-12
   6      0.29924588977548
   7    1.6027781405535e-12
   8    -1.3178882609392e-12
   9      0.26270714692942
  10      0.97990550477994
  11     -0.55893665628583
  12      0.97990550477163
  13     -0.55893665627958
 Sym= A
 Ene=               9
 Spin= Alpha
 Occup=    0.00000
   1    -1.7427687208124e-13
   2    5.8157434297562e-12
   3    -9.5613160335832e-12
   4    -2.676258537403e-12
   5     -0.87810532268164
   6    4.4836820781785e-13
   7    2.8379045288899e-12
   8        1.734541292063
   9    2.2692004401971e-12
  10     -0.33629547725481
  11     -0.64346489376966
  12      0.33629547725958
  13      0.64346489377278
 Sym= A
 Ene=              10
 Spin= Alpha
 Occup=    0.00000
   1    -0.014723294876543
   2      0.38709063061565
   3     -0.61205464819862
   4     -0.94493289603508
   5    3.1102809814617e-12
   6     0.014215956859609
   7       1.0019952745971
   8    -6.1033471136015e-12
   9       0.1281591525068
  10       0.1009138379533
  11      0.12535665923475
  12      0.10091383795097
  13      0.12535665923022
 Sym= A
 Ene=              11
 Spin= Alpha
 Occup=    0.00000
   1     0.022444953687625
   2      -1.2605517229493
   3       2.3682600984383
   4     -0.15901910416301
   5    -2.579783400978e-12
   6      0.62198807562702
   7      0.16862191126012
   8    3.6381954493016e-12
   9      -1.3378876677071
  10     -0.47792440330349
  11     -0.60790258669818
  12     -0.47792440330467
  13     -0.60790258669314
 Sym= A
 Ene=              12
 Spin= Alpha
 Occup=    0.00000
   1    -0.066093280258913
   2       1.0564015765047
   3      -1.2891810301704
   4      0.15649623074917
   5    8.8052875304753e-13
   6      0.71785186987701
   7     -0.16594668717841
   8    -3.5273220659171e-12
   9     -0.58562368447296
  10      0.12369431892546
  11      0.13920786581215
  12      0.12369431892081
  13      0.13920786581258
