[Molden Format]
made by pyscf v[2.11.0]
[Atoms] (AU)
O   1   8     0.00000000000000     0.00000000000000     0.22166487441148
H   2   1     0.00000000000000     1.43090062152066    -0.88665949764593
H   3   1     0.00000000000000    -1.43090062152066    -0.88665949764593
[GTO]
1 0
 s    6 1.00
             5484.6717   0.001831099805527
             825.23495   0.013950098518422
             188.04696    0.06844509273075
               52.9645    0.23271427528445
              16.89757    0.47019295006289
             5.7996353    0.35852086192309
 s    3 1.00
             15.539616   -0.11077750382508
             3.5999336   -0.14802630511126
             1.0137618     1.1307670390447
 s    1 1.00
             0.2700058                   1
 p    3 1.00
             15.539616   0.070874299543311
             3.5999336    0.33975279781076
             1.0137618    0.72715859531445
 p    1 1.00
             0.2700058                   1

2 0
 s    3 1.00
             18.731137    0.03349459952309
             2.8253937    0.23472694665786
             0.6401217    0.81375731841339
 s    1 1.00
             0.1612778                   1

3 0
 s    3 1.00
             18.731137    0.03349459952309
             2.8253937    0.23472694665786
             0.6401217    0.81375731841339
 s    1 1.00
             0.1612778                   1

[5d]
[7f]
[9g]

[MO]
 Sym= A
 Ene=               0
 Spin= Alpha
 Occup=    1.00000
   1    5.5819683582401e-14
   2    -1.180269586782e-13
   3    -2.4975243057918e-13
   4      0.62260816691624
   5    -4.0658763279669e-14
   6    -3.6530355078976e-13
   7      0.53028085087881
   8    -2.0653714666644e-14
   9    -2.7011184002856e-13
  10    7.6061918182012e-14
  11    6.1850736291156e-14
  12    1.1504522652594e-13
  13    8.6298239302703e-14
 Sym= A
 Ene=               1
 Spin= Alpha
 Occup=    1.00000
   1      0.11735934468377
   2      -0.1065021550094
   3     0.051282819287128
   4    3.5230000080739e-13
   5    1.3565466215246e-12
   6      0.51427808227388
   7    3.001809851541e-13
   8    6.7250502220996e-13
   9      0.35907743836256
  10     -0.19676965612277
  11    -0.095732213756427
  12     -0.19676965612406
  13    -0.095732213757309
 Sym= A
 Ene=               2
 Spin= Alpha
 Occup=    1.00000
   1    -0.061133848423085
   2     0.062622625921803
   3     0.078446884610778
   4    8.1282279828849e-14
   5      0.50798902766739
   6      0.02709048596772
   7    6.9067604638342e-14
   8      0.25191215398906
   9     0.024135821595492
  10       0.2463943803546
  11      0.15782163993471
  12     -0.23563622869352
  13     -0.17210860271305
 Sym= A
 Ene=               3
 Spin= Alpha
 Occup=    1.00000
   1     -0.24609533689708
   2      0.47165989498968
   3      0.57806683207625
   4    2.2631318310301e-13
   5    -0.068986481735575
   6       0.1930003355341
   7    1.9281972052057e-13
   8    -0.034210449957815
   9      0.17417282020837
  10     0.010052582524401
  11    -0.073328433581839
  12      0.07551383069305
  13    -0.028522885786937
 Sym= A
 Ene=               4
 Spin= Alpha
 Occup=    1.00000
   1      0.98130850151757
   2     0.050643975618117
   3    0.0019963659803283
   4    -1.5719527304959e-14
   5      0.01434622520035
   6    -0.031175831826708
   7    -1.3399897995465e-14
   8    0.0071143042368989
   9    -0.017088987602862
  10     0.022068516033489
  11     0.012718640385858
  12     0.008455388004681
  13    0.0034010108631001
 Sym= A
 Ene=               5
 Spin= Alpha
 Occup=    1.00000
   1    -0.091096461726165
   2      0.15895467575517
   3       1.1079810785181
   4    -4.3374210718807e-14
   5    2.2205809880945e-13
   6     -0.27223689515007
   7    4.6061391690573e-14
   8    4.3342518019569e-13
   9     -0.45797800651035
  10    -0.072296913915139
  11     -0.95483937174814
  12    -0.072296913915073
  13     -0.95483937174664
 Sym= A
 Ene=               6
 Spin= Alpha
 Occup=    0.00000
   1    3.1718449501098e-13
   2    -2.177646360611e-12
   3    5.5430384530542e-13
   4     -0.97386107097963
   5    9.5966852076977e-12
   6    -3.548088635716e-12
   7       1.0270581941992
   8    1.5057669374016e-11
   9    5.2875629807905e-12
  10    1.3312457107443e-12
  11    -2.9243595859212e-11
  12    2.4206740863891e-12
  13    2.9088284725982e-11
 Sym= A
 Ene=               7
 Spin= Alpha
 Occup=    0.00000
   1    -0.0098645067038027
   2      0.10957271183735
   3     -0.15287221158641
   4    -2.1153042408622e-11
   5     -0.34248507831635
   6     -0.12407944158697
   7    2.2307980090645e-11
   8     -0.82456864888004
   9     0.086615558856939
  10    -0.066605248597737
  11       1.4791866908377
  12     -0.16429791539824
  13      -1.2335583097724
 Sym= A
 Ene=               8
 Spin= Alpha
 Occup=    0.00000
   1     0.099733586828836
   2     -0.96761377431345
   3       0.9440769697004
   4    1.3516680273596e-12
   5    -0.0056839786214938
   6      -0.1845418482898
   7    -1.4255304108364e-12
   8      -0.1168656843135
   9      0.57225643035579
  10      0.72944132386307
  11     -0.38580098427533
  12      0.72543285453571
  13     -0.68689122315916
 Sym= A
 Ene=               9
 Spin= Alpha
 Occup=    0.00000
   1      0.02121682578232
   2      -1.1865637477268
   3       2.0725664845122
   4    2.0857435746316e-12
   5      0.42299651541713
   6     -0.13688960761541
   7    -2.1995441787307e-12
   8     -0.74118127982235
   9     -0.58881732149785
  10     -0.59533057489589
  11    -0.012959468754329
  12     -0.87148591174491
  13     -0.47136238252102
 Sym= A
 Ene=              10
 Spin= Alpha
 Occup=    0.00000
   1    0.0081297438225269
   2     -0.38330341512236
   3      0.87189712358703
   4    -5.1205721605044e-12
   5    -0.070207294115011
   6      0.88549731311331
   7    5.4003466444629e-12
   8     -0.43021551959145
   9      -1.0364746125721
  10      0.55550331739903
  11     -0.54160402424184
  12     -0.26208244355557
  13      -0.5056363281755
 Sym= A
 Ene=              11
 Spin= Alpha
 Occup=    0.00000
   1    0.0097455188563087
   2     -0.43007148588437
   3      0.70982693392931
   4    -3.4274143474907e-13
   5     -0.92452064706171
   6     -0.15052906009726
   7    3.6168408611816e-13
   8       1.1475356524645
   9    -0.095350053877466
  10      0.11954459037522
  11      -1.0410496950021
  12     -0.66240154886436
  13      0.94232083906859
 Sym= A
 Ene=              12
 Spin= Alpha
 Occup=    0.00000
   1     0.012314476671194
   2     -0.61094164983293
   3       1.1514079614663
   4    -3.071653014921e-12
   5     -0.17909859217017
   6      0.34974767336535
   7    3.2390710635825e-12
   8      0.93882971468339
   9     -0.67596139111383
  10     -0.98514483312927
  11    -0.060628213406112
  12      0.60342956465896
  13     -0.59874365852248
