[Molden Format]
made by pyscf v[2.11.0]
[Atoms] (AU)
O   1   8     0.00000000000000     0.00000000000000     0.22166487441148
H   2   1     0.00000000000000     1.43090062152066    -0.88665949764593
H   3   1     0.00000000000000    -1.43090062152066    -0.88665949764593
[GTO]
1 0
 s    6 1.00
             5484.6717   0.001831099805527
             825.23495   0.013950098518422
             188.04696    0.06844509273075
               52.9645    0.23271427528445
              16.89757    0.47019295006289
             5.7996353    0.35852086192309
 s    3 1.00
             15.539616   -0.11077750382508
             3.5999336   -0.14802630511126
             1.0137618     1.1307670390447
 s    1 1.00
             0.2700058                   1
 p    3 1.00
             15.539616   0.070874299543311
             3.5999336    0.33975279781076
             1.0137618    0.72715859531445
 p    1 1.00
             0.2700058                   1

2 0
 s    3 1.00
             18.731137    0.03349459952309
             2.8253937    0.23472694665786
             0.6401217    0.81375731841339
 s    1 1.00
             0.1612778                   1

3 0
 s    3 1.00
             18.731137    0.03349459952309
             2.8253937    0.23472694665786
             0.6401217    0.81375731841339
 s    1 1.00
             0.1612778                   1

[5d]
[7f]
[9g]

[MO]
 Sym= A
 Ene=               0
 Spin= Alpha
 Occup=    1.00000
   1    -6.4974266384009e-14
   2    1.0500266858117e-13
   3    6.617151959843e-13
   4      0.62719214866231
   5    -7.6140777777326e-14
   6     1.97261744909e-14
   7      0.52543328103862
   8    -3.4709367696942e-14
   9    -1.2401381912649e-13
  10    -1.0928719948492e-13
  11    -5.3722382300306e-13
  12    -3.4565438823706e-14
  13    -4.7326916911897e-13
 Sym= A
 Ene=               1
 Spin= Alpha
 Occup=    1.00000
   1    -1.512111025872e-13
   2    3.4276318905728e-13
   3    8.5657188238192e-13
   4    9.5619368825721e-14
   5      0.50124315941819
   6    -1.8268040509999e-13
   7    8.0098377742418e-14
   8      0.22720749900563
   9    -2.4594051037508e-13
  10      0.24456815950974
  11       0.2113421247841
  12     -0.24456815950966
  13     -0.21134212478509
 Sym= A
 Ene=               2
 Spin= Alpha
 Occup=    1.00000
   1    -0.099789284897348
   2      0.18379863481502
   3      0.81935776520832
   4    -1.3922313213524e-13
   5    -2.8188346492511e-13
   6     -0.54269354644007
   7    -1.1653900747842e-13
   8    -1.2018004155745e-13
   9     -0.58254128080537
  10     0.072737836991547
  11     -0.66677122520428
  12     0.072737836991826
  13     -0.66677122520402
 Sym= A
 Ene=               3
 Spin= Alpha
 Occup=    1.00000
   1     -0.16873663344889
   2      0.30690247357241
   3      0.98806502380678
   4    -2.9208574982689e-13
   5    -2.1221178724928e-13
   6      0.29719176368447
   7    -2.4474878404792e-13
   8    -8.8375804026101e-14
   9     0.086584067226596
  10     -0.11647842478878
  11     -0.56921633295999
  12     -0.11647842478857
  13     -0.56921633295979
 Sym= A
 Ene=               4
 Spin= Alpha
 Occup=    1.00000
   1     -0.22110978661962
   2        0.365192303239
   3    -0.090951557091814
   4    1.3449527231973e-13
   5    -1.4459947939721e-13
   6    -0.0076024716217717
   7    1.126740827698e-13
   8    -6.86420810157e-14
   9      0.16269033059272
  10      0.15802891789898
  11      0.42878405406806
  12      0.15802891789912
  13      0.42878405406818
 Sym= A
 Ene=               5
 Spin= Alpha
 Occup=    1.00000
   1      0.98075412233585
   2      0.05586600253324
   3    -0.011553636805035
   4    7.3918142763811e-15
   5    -2.0806977454247e-14
   6    0.00047283416588787
   7    6.1919000038311e-15
   8    -9.600202304518e-15
   9     0.014634336210036
  10     0.010063586678218
  11     0.028225906373512
  12     0.010063586678238
  13     0.028225906373529
 Sym= A
 Ene=               6
 Spin= Alpha
 Occup=    0.00000
   1    8.5226383910488e-16
   2    1.0796102438901e-16
   3    -1.4221077866941e-14
   4    -3.4673657441937e-14
   5      0.43562077058303
   6    -2.4086342802336e-15
   7    3.6917009304336e-14
   8      0.74733764936931
   9    3.5206893406393e-15
  10    -0.062959667328723
  11      -1.2970164967695
  12     0.062959667328706
  13       1.2970164967695
 Sym= A
 Ene=               7
 Spin= Alpha
 Occup=    0.00000
   1    -3.145538625881e-14
   2    6.3739293175414e-13
   3    -9.0389899664279e-13
   4     -0.97091519904508
   5    4.7066530153275e-12
   6    2.0251299156843e-13
   7       1.0295465906201
   8    -1.993645347875e-12
   9    -4.0144061918224e-14
  10    -6.5913269166687e-12
  11    7.7337440330038e-12
  12    6.8313145366847e-12
  13    -7.4246957225446e-12
 Sym= A
 Ene=               8
 Spin= Alpha
 Occup=    0.00000
   1     0.060930486892472
   2     -0.86154929733819
   3       1.2760781456797
   4    8.4704624025443e-14
   5     -0.14681529815177
   6      0.71156088966961
   7    -9.0029818377572e-14
   8      0.33385609701506
   9     -0.63578109108844
  10      0.43816331374445
  11     -0.84873297073378
  12      0.63527706199329
  13     -0.65617048952948
 Sym= A
 Ene=               9
 Spin= Alpha
 Occup=    0.00000
   1     0.077049815148933
   2      -1.1147595186909
   3       1.3232425111186
   4    -1.2558055691568e-12
   5     -0.25546735665527
   6     -0.63153083243138
   7    1.3315991153296e-12
   8       0.4303200156918
   9      0.58871471223427
  10     0.038285153458835
  11     -0.48212084037845
  12     0.041844428608501
  13    0.0052995986981209
 Sym= A
 Ene=              10
 Spin= Alpha
 Occup=    0.00000
   1    -0.035668912665499
   2    -0.031136168566071
   3      0.41544538013354
   4    -2.6205478205265e-12
   5      -0.8226123811603
   6        0.170500094531
   7    2.778661528883e-12
   8       1.4119318160709
   9     -0.60767855471717
  10      -0.5790207023552
  11      -0.6980525672593
  12     -0.50831246885209
  13      0.84486294313862
 Sym= A
 Ene=              11
 Spin= Alpha
 Occup=    0.00000
   1    0.0013131072958454
   2       -1.037502917696
   3       2.0402166262855
   4    8.3079526433723e-13
   5      0.42373719744492
   6      0.23285580304687
   7    -8.808316339568e-13
   8     -0.77756696329639
   9      -1.0479693308129
  10     -0.71244266453098
  11     0.078697829864591
  12     -0.86214695867162
  13     -0.66523042929278
 Sym= A
 Ene=              12
 Spin= Alpha
 Occup=    0.00000
   1    -0.004904119056971
   2     0.010598910419019
   3     0.010156763051492
   4    6.8359686329365e-12
   5       0.2587338042542
   6    -0.059063271315756
   7    -7.2487258471617e-12
   8       0.4312682243094
   9    0.0047720292508252
  10      -1.0703110241471
  11      0.73668745527082
  12      0.88025633133762
  13     -0.63407774629949
