[Molden Format]
made by pyscf v[2.11.0]
[Atoms] (AU)
O   1   8     0.00000000000000     0.00000000000000     0.22166487441148
H   2   1     0.00000000000000     1.43090062152066    -0.88665949764593
H   3   1     0.00000000000000    -1.43090062152066    -0.88665949764593
[GTO]
1 0
 s    6 1.00
             5484.6717   0.001831099805527
             825.23495   0.013950098518422
             188.04696    0.06844509273075
               52.9645    0.23271427528445
              16.89757    0.47019295006289
             5.7996353    0.35852086192309
 s    3 1.00
             15.539616   -0.11077750382508
             3.5999336   -0.14802630511126
             1.0137618     1.1307670390447
 s    1 1.00
             0.2700058                   1
 p    3 1.00
             15.539616   0.070874299543311
             3.5999336    0.33975279781076
             1.0137618    0.72715859531445
 p    1 1.00
             0.2700058                   1

2 0
 s    3 1.00
             18.731137    0.03349459952309
             2.8253937    0.23472694665786
             0.6401217    0.81375731841339
 s    1 1.00
             0.1612778                   1

3 0
 s    3 1.00
             18.731137    0.03349459952309
             2.8253937    0.23472694665786
             0.6401217    0.81375731841339
 s    1 1.00
             0.1612778                   1

[5d]
[7f]
[9g]

[MO]
 Sym= A
 Ene=               0
 Spin= Alpha
 Occup=    1.00000
   1    1.7031451098526e-12
   2    -3.9881482058451e-12
   3    -9.6262720833595e-12
   4      0.62719214866231
   5    -2.8708901234212e-13
   6    2.0765984679679e-12
   7      0.52543328103862
   8    -1.3018892132331e-13
   9    2.7164139042234e-12
  10    -6.2354180716072e-13
  11    5.3014785494832e-12
  12    -3.4286388018718e-13
  13    5.5438189782811e-12
 Sym= A
 Ene=               1
 Spin= Alpha
 Occup=    1.00000
   1     -0.19200380813304
   2      0.44626339543532
   3       1.1213609227943
   4    5.4988164110778e-12
   5     7.51436190735e-13
   6     -0.23941633251526
   7    4.6065317199055e-12
   8    3.4874364365921e-13
   9     -0.32163405641588
  10      0.04865549658333
  11     -0.64850524169731
  12     0.048655496582595
  13      -0.6485052416979
 Sym= A
 Ene=               2
 Spin= Alpha
 Occup=    1.00000
   1     0.050000761825588
   2     -0.20692481558332
   3       0.5145946744497
   4    -3.3464182760824e-13
   5     -0.17125616402748
   6    -0.098016108776438
   7    -2.8038896683663e-13
   8    -0.077628360580808
   9     -0.29918610111435
  10     -0.22204756859328
  11     -0.75458256801406
  12    -0.054927862103888
  13     -0.61016706464819
 Sym= A
 Ene=               3
 Spin= Alpha
 Occup=    1.00000
   1    -0.061909906802549
   2      0.12932285595441
   3      0.31260349596011
   4    -1.6553303725593e-14
   5    0.00045523622597132
   6      0.56094658526001
   7    -1.3882169439717e-14
   8    0.00020635310909409
   9      0.41066993053152
  10     -0.14065918629442
  11    -0.074112036334876
  12     -0.14110342691431
  13    -0.074495924232279
 Sym= A
 Ene=               4
 Spin= Alpha
 Occup=    1.00000
   1     0.011424982085733
   2    -0.075411839566829
   3      0.18700083627281
   4    2.6079744967743e-13
   5      0.47106855680612
   6    -0.036177212585851
   7    2.1827720472848e-13
   8       0.2135297143533
   9     -0.10917750361883
  10      0.17966531868247
  11    -0.049407279171019
  12     -0.28002522382663
  13     -0.44664613557825
 Sym= A
 Ene=               5
 Spin= Alpha
 Occup=    1.00000
   1       1.0029303234867
   2    0.0087892548071872
   3    -0.032818506104137
   4    3.1612310202561e-16
   5    0.0031997960410156
   6    0.00022542495040886
   7    2.6447753818308e-16
   8     0.001450429082466
   9    0.0017729971237656
  10    -0.0029836545333826
  11    0.0046354467320814
  12    -0.0061061638937735
  13    0.0019371487843526
 Sym= A
 Ene=               6
 Spin= Alpha
 Occup=    0.00000
   1     0.092195441119582
   2      -1.1279956794749
   3       1.4315626069877
   4    8.1386472203638e-12
   5    1.7994722770601e-11
   6      0.35126741375788
   7    -8.6301383258686e-12
   8    3.5638808221561e-11
   9     -0.14880975854997
  10      0.67281064127115
  11     -0.76849940287749
  12      0.67281064127478
  13     -0.76849940275625
 Sym= A
 Ene=               7
 Spin= Alpha
 Occup=    0.00000
   1    7.2069548110957e-13
   2    -9.5227581397148e-12
   3    1.2849092756967e-11
   4     -0.97091519904508
   5    -3.0992318390923e-12
   6    4.0950850120683e-12
   7       1.0295465906201
   8    -5.6900289963454e-12
   9    -2.9852800850205e-12
  10    3.6417417355523e-12
  11    5.9883420142498e-12
  12    6.7370295832397e-12
  13    -1.9510164015781e-11
 Sym= A
 Ene=               8
 Spin= Alpha
 Occup=    0.00000
   1      0.00585462411028
   2    -0.029238832332431
   3    -0.022058527300575
   4    -8.6988464264898e-12
   5      0.39519690381032
   6     -0.11871153279494
   7    9.2239535386985e-12
   8      0.57575475439212
   9      0.15538213160042
  10       0.1772465167683
  11      -1.3517642697485
  12      -0.1316088120152
  13       1.4008713405761
 Sym= A
 Ene=               9
 Spin= Alpha
 Occup=    0.00000
   1    -0.0092841367075242
   2     0.038876458429427
   3      0.04989648359929
   4    -2.543703303459e-13
   5     -0.55658514460354
   6      0.19039881284926
   7    2.6975232761932e-13
   8     -0.11611622406452
   9     -0.25451154209332
  10      0.86244031297861
  11     -0.67641601789391
  12     -0.94611321039253
  13      0.59395499564681
 Sym= A
 Ene=              10
 Spin= Alpha
 Occup=    0.00000
   1    -0.014277022273809
   2      0.75404404766834
   3      -1.3059363328284
   4    -3.872352875987e-13
   5      -0.6800038683785
   6     0.093629415533216
   7    4.1063120650954e-13
   8       1.5052488337061
   9      0.36035100262795
  10      0.18446543587729
  11     -0.52512200685544
  12      0.73444885715952
  13       0.8236003488458
 Sym= A
 Ene=              11
 Spin= Alpha
 Occup=    0.00000
   1    -0.046066481414332
   2       0.5269506220923
   3     -0.41770741494269
   4    1.6205360100967e-13
   5       0.3801447792982
   6       0.8489003107823
   7    -1.7185308057194e-13
   8     -0.38833974812622
   9     -0.90114140537639
  10    -0.028593647702651
  11     0.067996096623451
  12      0.11747939317715
  13      -0.2725239495245
 Sym= A
 Ene=              12
 Spin= Alpha
 Occup=    0.00000
   1    -0.00090496224109888
   2     -0.97028354267239
   3       1.9447959167141
   4    1.0645612618963e-13
   5     -0.35621391219283
   6       0.2979925037054
   7    -1.1289021674293e-13
   8      0.93688022846135
   9      -1.0795209914307
  10     -0.96077213777282
  11     -0.71794561170807
  12      -0.5171848776904
  13      0.11321605736296
