[Molden Format]
made by pyscf v[2.11.0]
[Atoms] (AU)
O   1   8     0.00000000000000     0.00000000000000     0.22166487441148
H   2   1     0.00000000000000     1.43090062152066    -0.88665949764593
H   3   1     0.00000000000000    -1.43090062152066    -0.88665949764593
[GTO]
1 0
 s    6 1.00
             5484.6717   0.001831099805527
             825.23495   0.013950098518422
             188.04696    0.06844509273075
               52.9645    0.23271427528445
              16.89757    0.47019295006289
             5.7996353    0.35852086192309
 s    3 1.00
             15.539616   -0.11077750382508
             3.5999336   -0.14802630511126
             1.0137618     1.1307670390447
 s    1 1.00
             0.2700058                   1
 p    3 1.00
             15.539616   0.070874299543311
             3.5999336    0.33975279781076
             1.0137618    0.72715859531445
 p    1 1.00
             0.2700058                   1

2 0
 s    3 1.00
             18.731137    0.03349459952309
             2.8253937    0.23472694665786
             0.6401217    0.81375731841339
 s    1 1.00
             0.1612778                   1

3 0
 s    3 1.00
             18.731137    0.03349459952309
             2.8253937    0.23472694665786
             0.6401217    0.81375731841339
 s    1 1.00
             0.1612778                   1

[5d]
[7f]
[9g]

[MO]
 Sym= A
 Ene=               0
 Spin= Alpha
 Occup=    1.00000
   1    -8.9129920589599e-12
   2    2.050975527908e-11
   3    5.3466948433628e-11
   4      0.62719214866231
   5    -4.8468296147363e-13
   6    -1.1535580332196e-11
   7      0.52543328103862
   8    -2.1989662871307e-13
   9    -1.5731434298226e-11
  10    1.818915617433e-12
  11    -3.1865779164904e-11
  12    2.2923117861986e-12
  13    -3.145731238534e-11
 Sym= A
 Ene=               1
 Spin= Alpha
 Occup=    1.00000
   1     -0.19200380813298
   2      0.44626339543515
   3       1.1213609227948
   4    -2.9408189274398e-11
   5    -2.6496638004375e-13
   6     -0.23941633251532
   7    -2.4636812234597e-11
   8    -1.1130245697148e-13
   9     -0.32163405641611
  10     0.048655496582707
  11     -0.64850524169832
  12     0.048655496582969
  13     -0.64850524169807
 Sym= A
 Ene=               2
 Spin= Alpha
 Occup=    1.00000
   1    -0.073753463104732
   2      0.19577476978663
   3     -0.18801716035456
   4    1.1246610262847e-12
   5      0.31796069948255
   6      0.32813815008582
   7    9.4212695674821e-13
   8       0.1441277630509
   9      0.38855272798666
  10      0.17916814156486
  11      0.54410967737906
  12     -0.13111265372471
  13      0.27598236805222
 Sym= A
 Ene=               3
 Spin= Alpha
 Occup=    1.00000
   1     -0.05836053113774
   2     0.053600529939456
   3      0.42461886271177
   4    -4.1074494291258e-13
   5     -0.19545015835688
   6      0.46487939961536
   7    -3.4418251762447e-13
   8    -0.088595207388094
   9      0.27440559688269
  10     -0.25930056116471
  11     -0.34554837335488
  12    -0.068571233064935
  13     -0.18073075547625
 Sym= A
 Ene=               4
 Spin= Alpha
 Occup=    1.00000
   1     0.039159293403735
   2     -0.15469686909508
   3      0.42663037014709
   4    -3.9978932526906e-13
   5      0.33458006113052
   6    -0.040230917484873
   7    -3.3492222924248e-13
   8      0.15166111991405
   9     -0.20891309518413
  10     0.044628968849166
  11     -0.40230177305083
  12     -0.28186977022316
  13     -0.68444372232733
 Sym= A
 Ene=               5
 Spin= Alpha
 Occup=    1.00000
   1       1.0009763741236
   2     0.013212808969037
   3    -0.030164347777295
   4    1.8288387411792e-14
   5    -0.001056759323064
   6      0.01307830918925
   7    1.5318478870711e-14
   8    -0.00047901629844289
   9     0.012986546577896
  10    -0.0069935331719472
  11    0.0066540615393173
  12    -0.0059622984195908
  13    0.0075451969354848
 Sym= A
 Ene=               6
 Spin= Alpha
 Occup=    0.00000
   1     0.092195441119572
   2      -1.1279956794747
   3       1.4315626069875
   4    -4.4807980803377e-11
   5    1.2497181133516e-11
   6      0.35126741375806
   7    4.7513668766195e-11
   8    1.977331158817e-11
   9      -0.1488097585501
  10      0.67281064127102
  11     -0.76849940285173
  12      0.67281064127504
  13     -0.76849940278201
 Sym= A
 Ene=               7
 Spin= Alpha
 Occup=    0.00000
   1    -4.2592704096084e-12
   2    5.2383590606295e-11
   3    -6.6656073596598e-11
   4     -0.97091519904508
   5    -1.2598780271376e-12
   6    -1.6208521560501e-11
   7       1.0295465906201
   8    -9.6805025106023e-13
   9     7.07946346023e-12
  10    -3.0444338178157e-11
  11    3.7505928342596e-11
  12    -3.1231836922596e-11
  13    3.3576009050085e-11
 Sym= A
 Ene=               8
 Spin= Alpha
 Occup=    0.00000
   1      0.01517329300104
   2     -0.34458297799107
   3      0.47817553619168
   4    -1.8055066345059e-12
   5       0.4724345186791
   6     -0.23054937331588
   7    1.9147223638684e-12
   8      0.51232139168574
   9      0.11164151770127
  10     -0.11243469893172
  11      -1.2129626813341
  12       -0.174893724887
  13       1.1755691595053
 Sym= A
 Ene=               9
 Spin= Alpha
 Occup=    0.00000
   1    -0.040789185986066
   2      0.12377374937354
   3      0.31287440195033
   4    -4.0698922502986e-13
   5     -0.16933389478042
   6      0.84999421641169
   7    4.3148554844868e-13
   8       0.7329128006389
   9      -1.1690984989048
  10     -0.31535493101848
  11     -0.75964496046834
  12     -0.12321629488878
  13      0.36855077787128
 Sym= A
 Ene=              10
 Spin= Alpha
 Occup=    0.00000
   1    0.0069911294772916
   2      0.10039093948769
   3     -0.29581089834679
   4    4.9239598417543e-13
   5     -0.88866107190112
   6     -0.18057123443577
   7    -5.2231096195857e-13
   8      0.97562457451254
   9      0.33205213679899
  10      0.69124346382201
  11      -1.0110150617797
  12      -0.4325807344334
  13       1.1525395582845
 Sym= A
 Ene=              11
 Spin= Alpha
 Occup=    0.00000
   1     0.020940504915283
   2      -1.2699994855284
   3       2.2421142859515
   4    2.1422787353195e-13
   5     -0.25822894942618
   6     -0.09027561975729
   7    -2.2717505835342e-13
   8      0.20402056183043
   9     -0.70613772657425
  10     -0.88539438539419
  11     -0.10063859830052
  12     -0.70989950033556
  13     -0.43762356828591
 Sym= A
 Ene=              12
 Spin= Alpha
 Occup=    0.00000
   1     0.008116507750493
   2      0.18177299506843
   3     -0.47332208020939
   4    -1.7734906901878e-13
   5     -0.30249338514498
   6     -0.22834849160638
   7    1.8798034462056e-13
   8       1.3587497219004
   9      0.45612469932828
  10     -0.59943037760398
  11    -0.0030410516602914
  12      0.99814545677683
  13      0.20730030730879
