[Molden Format]
made by pyscf v[2.11.0]
[Atoms] (AU)
O   1   8     0.00000000000000     0.00000000000000     0.22166487441148
H   2   1     0.00000000000000     1.43090062152066    -0.88665949764593
H   3   1     0.00000000000000    -1.43090062152066    -0.88665949764593
[GTO]
1 0
 s    6 1.00
             5484.6717   0.001831099805527
             825.23495   0.013950098518422
             188.04696    0.06844509273075
               52.9645    0.23271427528445
              16.89757    0.47019295006289
             5.7996353    0.35852086192309
 s    3 1.00
             15.539616   -0.11077750382508
             3.5999336   -0.14802630511126
             1.0137618     1.1307670390447
 s    1 1.00
             0.2700058                   1
 p    3 1.00
             15.539616   0.070874299543311
             3.5999336    0.33975279781076
             1.0137618    0.72715859531445
 p    1 1.00
             0.2700058                   1

2 0
 s    3 1.00
             18.731137    0.03349459952309
             2.8253937    0.23472694665786
             0.6401217    0.81375731841339
 s    1 1.00
             0.1612778                   1

3 0
 s    3 1.00
             18.731137    0.03349459952309
             2.8253937    0.23472694665786
             0.6401217    0.81375731841339
 s    1 1.00
             0.1612778                   1

[5d]
[7f]
[9g]

[MO]
 Sym= A
 Ene=               0
 Spin= Alpha
 Occup=    1.00000
   1    -5.0069985492413e-14
   2    1.0614829139128e-13
   3    2.3154809946121e-13
   4      0.62260816691624
   5    -5.3507593921223e-14
   6    3.547439208169e-13
   7      0.53028085087881
   8    -2.6942154720418e-14
   9    2.6160195312745e-13
  10    -1.197221319576e-13
  11    -8.7209093231781e-14
  12    -6.9299556403059e-14
  13    -5.4030698915165e-14
 Sym= A
 Ene=               1
 Spin= Alpha
 Occup=    1.00000
   1      0.11735934468407
   2     -0.10650215501001
   3      0.05128281928638
   4    -3.4561447097346e-13
   5    -2.279864092865e-12
   6      0.51427808227363
   7    -2.9429943197642e-13
   8    -1.1338206307992e-12
   9      0.35907743836234
  10     -0.19676965612455
  11    -0.095732213757538
  12     -0.19676965612239
  13    -0.095732213756066
 Sym= A
 Ene=               2
 Spin= Alpha
 Occup=    1.00000
   1     -0.31466433419184
   2       0.4508555901175
   3      0.55730367380609
   4    -1.9106699286925e-13
   5      0.14615309002613
   6      0.18857773776263
   7    -1.6272168551384e-13
   8     0.072477431037635
   9      0.16931110205583
  10      0.10939759783946
  11    -0.0022836162787312
  12    -0.029287017698518
  13    -0.097207565084207
 Sym= A
 Ene=               3
 Spin= Alpha
 Occup=    1.00000
   1      0.12785844341817
   2     -0.13081028237408
   3     -0.16387446017284
   4    1.2433260825048e-13
   5      0.49127048325103
   6    -0.056596536682978
   7    1.0583837349752e-13
   8       0.2436214148075
   9    -0.050422112455996
  10      0.22184869757741
  11       0.1744598136375
  12     -0.24431769057519
  13     -0.14461201846282
 Sym= A
 Ene=               4
 Spin= Alpha
 Occup=    1.00000
   1       0.9549372820507
   2     0.092560083028854
   3     0.053637095319369
   4    -4.4644383205897e-15
   5    -0.017617821440821
   6    -0.013792218545516
   7    -3.8025857236159e-15
   8    -0.0087366913575497
   9    -0.0014505092192447
  10      0.01065764772925
  11    -0.0022475628039686
  12     0.027375192275863
  13     0.009194912891984
 Sym= A
 Ene=               5
 Spin= Alpha
 Occup=    1.00000
   1    -0.091096461726167
   2      0.15895467575519
   3        1.107981078518
   4    -3.8428320498512e-15
   5    2.3908161535877e-13
   6     -0.27223689515008
   7    4.8364296917588e-15
   8    4.0775649475175e-13
   9     -0.45797800651034
  10    -0.072296913915152
  11      -0.9548393717481
  12    -0.072296913915068
  13     -0.95483937174665
 Sym= A
 Ene=               6
 Spin= Alpha
 Occup=    0.00000
   1    -1.6505835240488e-13
   2    8.4578602224463e-13
   3    -5.6424421167173e-13
   4     -0.97386107097963
   5    5.8393219945309e-11
   6    -1.688520420406e-12
   7       1.0270581941992
   8    9.6647586129871e-11
   9    2.8226363842794e-13
  10    -9.4577252879015e-12
  11    -1.7660726151946e-10
  12    4.1722292011249e-12
  13    1.8001307640103e-10
 Sym= A
 Ene=               7
 Spin= Alpha
 Occup=    0.00000
   1    0.0056118853801888
   2    -0.034389952957091
   3      0.01782202249611
   4    -1.3295309565356e-10
   5     -0.43804113730676
   6    0.0045718530960269
   7    1.4021496463474e-10
   8     -0.70743131827383
   9     0.034723185748824
  10      0.13817783460958
  11       1.2458988535805
  12    -0.0098763239394237
  13      -1.3132754093913
 Sym= A
 Ene=               8
 Spin= Alpha
 Occup=    0.00000
   1     0.074355237984527
   2     -0.75769030474041
   3       0.9034611533132
   4    5.6765827529644e-12
   5     -0.34173594276694
   6      0.42594185741188
   7    -5.98649746016e-12
   8      0.51002451872377
   9     -0.12518932186159
  10      0.89695011241217
  11      -1.1814910702974
  12      0.56443865819134
  13     -0.16406120092194
 Sym= A
 Ene=               9
 Spin= Alpha
 Occup=    0.00000
   1     0.047801576494385
   2       -0.921872738407
   3       1.2558023506591
   4    3.180078433328e-12
   5      0.23213269919455
   6     -0.44293541856813
   7    -3.3538843206215e-12
   8     -0.90972769351135
   9      0.22859152341519
  10      0.40314178062576
  11     -0.21731246783418
  12      -0.7765474300512
  13     -0.12435074209155
 Sym= A
 Ene=              10
 Spin= Alpha
 Occup=    0.00000
   1     0.047915923873399
   2     -0.10190733682274
   3     -0.36679413843495
   4    1.807265259897e-12
   5      0.23185766947443
   6     -0.60783637807355
   7    -1.9059731310337e-12
   8      0.17081661206803
   9       1.0524867420237
  10     -0.12727904750075
  11      0.49268581756177
  12       1.0504507161948
  13     -0.38810300011675
 Sym= A
 Ene=              11
 Spin= Alpha
 Occup=    0.00000
   1    -0.004863459643318
   2    -0.038723322817936
   3     0.018928432496736
   4    4.8988043942011e-13
   5     -0.87672512299854
   6     -0.43028774988447
   7    -5.1629963072658e-13
   8       1.3811495583533
   9      0.30898519628706
  10     -0.17783400867749
  11     -0.67178120077862
  12     -0.38476125505419
  13       1.1089981528742
 Sym= A
 Ene=              12
 Spin= Alpha
 Occup=    0.00000
   1     0.025341474891318
   2      -1.2744950371608
   3       2.2959718606717
   4    -2.8935225448813e-12
   5     0.055174110477426
   6      0.25500260349341
   7    3.0517778340881e-12
   8      0.31828361720087
   9     -0.97449896285154
  10      -1.0725501295891
  11     -0.16840330365353
  12     -0.10546185176122
  13     -0.75513340083436
