[Molden Format]
made by pyscf v[2.11.0]
[Atoms] (AU)
O   1   8     0.00000000000000     0.00000000000000     0.22166487441148
H   2   1     0.00000000000000     1.43090062152066    -0.88665949764593
H   3   1     0.00000000000000    -1.43090062152066    -0.88665949764593
[GTO]
1 0
 s    6 1.00
             5484.6717   0.001831099805527
             825.23495   0.013950098518422
             188.04696    0.06844509273075
               52.9645    0.23271427528445
              16.89757    0.47019295006289
             5.7996353    0.35852086192309
 s    3 1.00
             15.539616   -0.11077750382508
             3.5999336   -0.14802630511126
             1.0137618     1.1307670390447
 s    1 1.00
             0.2700058                   1
 p    3 1.00
             15.539616   0.070874299543311
             3.5999336    0.33975279781076
             1.0137618    0.72715859531445
 p    1 1.00
             0.2700058                   1

2 0
 s    3 1.00
             18.731137    0.03349459952309
             2.8253937    0.23472694665786
             0.6401217    0.81375731841339
 s    1 1.00
             0.1612778                   1

3 0
 s    3 1.00
             18.731137    0.03349459952309
             2.8253937    0.23472694665786
             0.6401217    0.81375731841339
 s    1 1.00
             0.1612778                   1

[5d]
[7f]
[9g]

[MO]
 Sym= A
 Ene=               0
 Spin= Alpha
 Occup=    1.00000
   1    4.7662536652775e-14
   2    -9.4324528810321e-14
   3    -2.104031381628e-13
   4      0.62719214866231
   5    -9.2257521154343e-15
   6    -3.6058089239519e-13
   7      0.52543328103862
   8    -4.2368454985321e-15
   9    -2.6589665233834e-13
  10    8.3097565154755e-14
  11    4.1653824389184e-14
  12    9.2623637495965e-14
  13    4.9679985900356e-14
 Sym= A
 Ene=               1
 Spin= Alpha
 Occup=    1.00000
   1    9.4116316162577e-14
   2    -6.4209218626946e-14
   3    -6.8211075727649e-13
   4    1.1892003468538e-14
   5      0.50124315941819
   6    6.9457202842022e-14
   7    9.781964380924e-15
   8      0.22720749900563
   9    2.152344198974e-13
  10      0.24456815950977
  11      0.21134212478517
  12     -0.24456815950963
  13     -0.21134212478402
 Sym= A
 Ene=               2
 Spin= Alpha
 Occup=    1.00000
   1     -0.12336150161223
   2      0.22343737188224
   3        1.092643601367
   4    2.756995271464e-13
   5    2.5095656451092e-13
   6      0.19956010318657
   7    2.3083507908274e-13
   8    1.202588966122e-13
   9    -0.052338998642927
  10     -0.14141544711854
  11     -0.76011535662655
  12     -0.14141544711879
  13     -0.76011535662672
 Sym= A
 Ene=               3
 Spin= Alpha
 Occup=    1.00000
   1    -0.025669951726739
   2     0.019220685364993
   3      0.57796170326765
   4    -2.9746345220579e-13
   5    1.6011684410631e-13
   6      -0.5776761747045
   7    -2.493054929323e-13
   8    8.3033993127898e-14
   9     -0.60889051097527
  10     0.057427469355457
  11     -0.60586503151285
  12     0.057427469355302
  13     -0.60586503151293
 Sym= A
 Ene=               4
 Spin= Alpha
 Occup=    1.00000
   1     -0.14692950603097
   2       0.4627783488764
   3       0.3559561249884
   4    7.1406226044818e-15
   5    -5.5939918972876e-14
   6    -0.096748680634041
   7    5.9750083361381e-15
   8    -2.6138500714107e-14
   9    0.0067660827001601
  10      0.14345577149068
  11     0.091627600999838
  12      0.14345577149073
  13     0.091627600999881
 Sym= A
 Ene=               5
 Spin= Alpha
 Occup=    1.00000
   1       1.0058493191436
   2    -3.0667121278391e-05
   3     -0.03756032440198
   4    -2.4562853318862e-15
   5    -2.0732083207536e-14
   6       0.0017164169079
   7    -2.0571528290015e-15
   8    -9.3596603225218e-15
   9    0.00080435984621067
  10    -0.0075252738371955
  11    -0.00039777820582875
  12    -0.0075252738371753
  13    -0.00039777820581115
 Sym= A
 Ene=               6
 Spin= Alpha
 Occup=    0.00000
   1    2.2915757755767e-15
   2    -7.0227258102501e-15
   3    -1.7307820840876e-14
   4    -1.0214240117494e-14
   5      0.43562077058307
   6    1.0280584736335e-14
   7    1.063578231005e-14
   8      0.74733764936927
   9    1.096056612628e-14
  10    -0.062959667328735
  11      -1.2970164967695
  12     0.062959667328754
  13       1.2970164967695
 Sym= A
 Ene=               7
 Spin= Alpha
 Occup=    0.00000
   1    -8.2873441272016e-14
   2    4.1589713723456e-13
   3    6.8578867550511e-14
   4     -0.97091519904508
   5    -1.2567151716171e-12
   6    5.9743540107119e-13
   7       1.0295465906201
   8    -1.2545167741596e-12
   9    -1.1981950242616e-12
  10    3.0169553695482e-12
  11    -2.7190964275165e-12
  12    -4.5312953097316e-12
  13    3.0390419334009e-12
 Sym= A
 Ene=               8
 Spin= Alpha
 Occup=    0.00000
   1    -0.032720342392479
   2     0.066888553357608
   3      0.33343961252948
   4    -7.4838867297731e-13
   5      0.53623447620293
   6      0.77209498256551
   7    7.935923261297e-13
   8     -0.63140814542342
   9      -1.0476269893494
  10     -0.47035216342028
  11      0.44433645526727
  12      0.13484366428098
  13     -0.85376524523895
 Sym= A
 Ene=               9
 Spin= Alpha
 Occup=    0.00000
   1    -0.0037667628625711
   2     -0.90656938474108
   3       1.7951516477883
   4    2.3561073773657e-12
   5    -0.076626728207674
   6     0.061921538626655
   7    -2.4984025120524e-12
   8     -0.32847520665474
   9     -0.84360188941354
  10      -0.3105084123678
  11     -0.47260193502793
  12      -1.3406234526469
  13      0.13643549695285
 Sym= A
 Ene=              10
 Spin= Alpha
 Occup=    0.00000
   1    -0.069174389852484
   2       0.8600387761925
   3     -0.98162436763213
   4    1.0742324504296e-12
   5     -0.71548451708398
   6      0.27324801557406
   7    -1.1390720315631e-12
   8       1.1819889623013
   9     -0.37259357280531
  10     -0.25556402307335
  11     -0.36683032243972
  12     -0.29788940022538
  13       1.0217541510251
 Sym= A
 Ene=              11
 Spin= Alpha
 Occup=    0.00000
   1      0.05269380140168
   2     -0.51710248835049
   3      0.65089295736979
   4    1.6597285501405e-12
   5     -0.33541399680166
   6      0.55609657516126
   7    -1.7599682486143e-12
   8      0.15920549514202
   9     -0.30863528777792
  10       1.0935547795467
  11      -1.1089895640689
  12      0.18371653545484
  13     -0.05856429243618
 Sym= A
 Ene=              12
 Spin= Alpha
 Occup=    0.00000
   1    -0.047965633387934
   2       1.1086235927697
   3      -1.7301816748975
   4    2.2768904944179e-12
   5      0.30358872394497
   6    -0.089765535229866
   7    -2.4144005536149e-12
   8      -1.0732067937643
   9      0.41841385809322
  10      0.77655418185305
  11      0.45139504763282
  12     -0.49387664365489
  13      0.44048409946521
