[Molden Format]
made by pyscf v[2.11.0]
[Atoms] (AU)
O   1   8     0.00000000000000     0.00000000000000     0.22166487441148
H   2   1     0.00000000000000     1.43090062152066    -0.88665949764593
H   3   1     0.00000000000000    -1.43090062152066    -0.88665949764593
[GTO]
1 0
 s    6 1.00
             5484.6717   0.001831099805527
             825.23495   0.013950098518422
             188.04696    0.06844509273075
               52.9645    0.23271427528445
              16.89757    0.47019295006289
             5.7996353    0.35852086192309
 s    3 1.00
             15.539616   -0.11077750382508
             3.5999336   -0.14802630511126
             1.0137618     1.1307670390447
 s    1 1.00
             0.2700058                   1
 p    3 1.00
             15.539616   0.070874299543311
             3.5999336    0.33975279781076
             1.0137618    0.72715859531445
 p    1 1.00
             0.2700058                   1

2 0
 s    3 1.00
             18.731137    0.03349459952309
             2.8253937    0.23472694665786
             0.6401217    0.81375731841339
 s    1 1.00
             0.1612778                   1

3 0
 s    3 1.00
             18.731137    0.03349459952309
             2.8253937    0.23472694665786
             0.6401217    0.81375731841339
 s    1 1.00
             0.1612778                   1

[5d]
[7f]
[9g]

[MO]
 Sym= A
 Ene=               0
 Spin= Alpha
 Occup=    1.00000
   1    -2.0014513012825e-14
   2    4.1714370354129e-14
   3    6.1582541462655e-14
   4      0.62260816691624
   5    -7.5229787223378e-15
   6    5.2699049255054e-14
   7      0.53028085087881
   8    -4.1383482714826e-15
   9    4.0960025215618e-14
  10    -1.1464317451603e-14
  11    -1.223350712547e-14
  12    -4.6765270280386e-15
  13    -8.9213390938878e-15
 Sym= A
 Ene=               1
 Spin= Alpha
 Occup=    1.00000
   1    -3.6742476133511e-14
   2    3.2125012306588e-14
   3    1.3806309313487e-13
   4    8.8201139002426e-15
   5      0.51285261144915
   6    2.9698075523265e-13
   7    7.4611122207739e-15
   8      0.25432400896985
   9    2.132837894789e-13
  10      0.24332283099087
  11      0.16654452884037
  12     -0.24332283099105
  13     -0.16654452884049
 Sym= A
 Ene=               2
 Spin= Alpha
 Occup=    1.00000
   1    -0.074610291118714
   2      0.15611013255404
   3      0.34879346966713
   4    -6.6828406883479e-14
   5    -2.7310448455882e-13
   6      0.54102076460656
   7    -5.6849926715175e-14
   8    -1.3920099037936e-13
   9      0.39835058476131
  10     -0.14556989338707
  11     -0.10873266419353
  12     -0.14556989338682
  13     -0.10873266419337
 Sym= A
 Ene=               3
 Spin= Alpha
 Occup=    1.00000
   1     -0.14263178837983
   2      0.46464962071591
   3       0.4681692416183
   4    -3.3372061807297e-14
   5    5.6488539101814e-14
   6     -0.10341791907061
   7    -2.8433450275708e-14
   8    2.8068947553696e-14
   9    -0.037894267426799
  10      0.13972585610872
  11     0.006721046593862
  12      0.13972585610866
  13    0.0067210465938251
 Sym= A
 Ene=               4
 Spin= Alpha
 Occup=    1.00000
   1       1.0075362676368
   2    -0.0047463237982982
   3    -0.045932187005146
   4    2.7380972335859e-15
   5    6.3655429007011e-15
   6    0.0061780760167461
   7    2.3320253358064e-15
   8    3.1733001249057e-15
   9     0.005309005391865
  10    -0.0098312384206976
  11        0.002470819826
  12    -0.0098312384207037
  13    0.0024708198259959
 Sym= A
 Ene=               5
 Spin= Alpha
 Occup=    1.00000
   1    2.3283404865752e-13
   2    -3.7372281974161e-13
   3    -2.9217391135123e-12
   4    -8.2204050124827e-14
   5     -0.46202929361632
   6    6.3933381191314e-13
   7    8.6009134561263e-14
   8     -0.70145809226795
   9    1.2375598731158e-12
  10      0.11124912073352
  11       1.2413933256668
  12      -0.1112491207332
  13      -1.2413933256618
 Sym= A
 Ene=               6
 Spin= Alpha
 Occup=    0.00000
   1    2.9915614172336e-12
   2    -4.5269201383155e-12
   3    -3.6693131397936e-11
   4     -0.97386107097963
   5    -1.8163350322516e-12
   6    9.9691404526049e-12
   7       1.0270581941992
   8    2.2433052369662e-12
   9    1.4946010496355e-11
  10    6.2300812406897e-12
  11    2.6568388937968e-11
  12    3.8170449300861e-12
  13    3.1810858238577e-11
 Sym= A
 Ene=               7
 Spin= Alpha
 Occup=    0.00000
   1    -0.093617721037372
   2      0.21518775300339
   3       1.0187238457735
   4    -3.0267974379311e-11
   5    -0.069351552489407
   6     -0.25566473763334
   7    3.1922143373083e-11
   8     0.015754731888645
   9     -0.46002812941309
  10     0.051506890124353
  11      -1.0601578223039
  12     -0.19655469829651
  13     -0.79167323893487
 Sym= A
 Ene=               8
 Spin= Alpha
 Occup=    0.00000
   1     0.079508858276443
   2      -1.3007022690227
   3       1.9267977875816
   4    1.6668633438925e-12
   5     0.025244032138606
   6      0.52347204009887
   7    -1.7578732954148e-12
   8     -0.21765944119593
   9     -0.59834422767973
  10      0.58553758193376
  11     -0.91379302635153
  12      0.17051717561495
  13     -0.75335125356601
 Sym= A
 Ene=               9
 Spin= Alpha
 Occup=    0.00000
   1     0.038841569445424
   2     -0.15329233139087
   3     -0.22113248459873
   4    4.105374973614e-12
   5      -0.6527294568875
   6     -0.50099551810126
   7    -4.3295057986954e-12
   8      0.67038789782278
   9      0.78149784850374
  10      0.73346173218931
  11     -0.77910856036592
  12     -0.35635356933357
  13       1.1118010649817
 Sym= A
 Ene=              10
 Spin= Alpha
 Occup=    0.00000
   1     0.049084629868777
   2     -0.23446446071952
   3    -0.053350472099047
   4    -3.6072120590288e-12
   5       0.3801815713994
   6     -0.59339041493551
   7    3.8042284042446e-12
   8     -0.26781490356257
   9      0.96862054690128
  10     0.041514787044578
  11      0.49573677422209
  12      0.96872855231497
  13     -0.75503810770939
 Sym= A
 Ene=              11
 Spin= Alpha
 Occup=    0.00000
   1    0.0049264701944821
   2     -0.30533185750063
   3      0.60998924933045
   4    -9.53192050523e-13
   5     -0.61568841232729
   6      0.14018598119913
   7    1.0056673716486e-12
   8       1.5866106317202
   9     -0.30873187125031
  10     -0.68715885071994
  11     -0.52520131842459
  12      0.56023023146522
  13     0.095899562827662
 Sym= A
 Ene=              12
 Spin= Alpha
 Occup=    0.00000
   1    0.0087951876655449
   2      -1.0847965593641
   3       1.9630139030981
   4    -3.4708681698209e-12
   5      0.13933494141699
   6     -0.33051895555911
   7    3.6605876286578e-12
   8      -0.2193173104435
   9     -0.46669338237237
  10     -0.90542308648204
  11     0.030096362777162
  12     -0.85450829023326
  13     -0.28070288644526
