[Molden Format]
made by pyscf v[2.11.0]
[Atoms] (AU)
O   1   8     0.00000000000000     0.00000000000000     0.22166487441148
H   2   1     0.00000000000000     1.43090062152066    -0.88665949764593
H   3   1     0.00000000000000    -1.43090062152066    -0.88665949764593
[GTO]
1 0
 s    6 1.00
             5484.6717   0.001831099805527
             825.23495   0.013950098518422
             188.04696    0.06844509273075
               52.9645    0.23271427528445
              16.89757    0.47019295006289
             5.7996353    0.35852086192309
 s    3 1.00
             15.539616   -0.11077750382508
             3.5999336   -0.14802630511126
             1.0137618     1.1307670390447
 s    1 1.00
             0.2700058                   1
 p    3 1.00
             15.539616   0.070874299543311
             3.5999336    0.33975279781076
             1.0137618    0.72715859531445
 p    1 1.00
             0.2700058                   1

2 0
 s    3 1.00
             18.731137    0.03349459952309
             2.8253937    0.23472694665786
             0.6401217    0.81375731841339
 s    1 1.00
             0.1612778                   1

3 0
 s    3 1.00
             18.731137    0.03349459952309
             2.8253937    0.23472694665786
             0.6401217    0.81375731841339
 s    1 1.00
             0.1612778                   1

[5d]
[7f]
[9g]

[MO]
 Sym= A
 Ene=               0
 Spin= Alpha
 Occup=    1.00000
   1    -0.084828123695503
   2      0.12363017164967
   3       1.1213028362426
   4    -2.7125447029759e-13
   5    -1.8706055210858e-14
   6     -0.29537550907205
   7    -2.2719202104699e-13
   8    2.2837147860592e-15
   9     -0.49219681389845
  10     -0.06108194982874
  11     -0.96050010321645
  12    -0.061081949828717
  13      -0.9605001032164
 Sym= A
 Ene=               1
 Spin= Alpha
 Occup=    1.00000
   1     0.020883949259677
   2    -0.053129360545101
   3      0.21892368935602
   4    -2.1228035198102e-13
   5    -1.3751471600384e-12
   6      0.53280498527248
   7    -1.7793246744115e-13
   8    -6.2129045282923e-13
   9      0.34235619658595
  10     -0.18884813325054
  11     -0.16490079498285
  12      -0.1888481332492
  13     -0.16490079498168
 Sym= A
 Ene=               2
 Spin= Alpha
 Occup=    1.00000
   1    1.601289468193e-13
   2    -4.1225010182099e-13
   3    3.2139887053885e-13
   4    2.3451186376173e-13
   5      0.50124315941819
   6    1.3900034950902e-12
   7    1.9645624268304e-13
   8      0.22720749900563
   9    8.5307164699762e-13
  10      0.24456815950914
  11      0.21134212478414
  12     -0.24456815951026
  13     -0.21134212478506
 Sym= A
 Ene=               3
 Spin= Alpha
 Occup=    1.00000
   1     -0.28787168507506
   2       0.4928633443264
   3      0.59186817454125
   4    -1.3606602027815e-13
   5    2.7437792718624e-13
   6      0.10848000265383
   7    -1.1401022134321e-13
   8    1.2726161712943e-13
   9      0.11838788584852
  10     0.067136037080878
  11    -0.059081853995706
  12      0.06713603708061
  13    -0.059081853995929
 Sym= A
 Ene=               4
 Spin= Alpha
 Occup=    1.00000
   1      0.20792096727064
   2     0.012447692378702
   3    0.0046024361637581
   4      0.61288783082734
   5    -1.771766243554e-13
   6    0.00025975085148268
   7       0.5134497690175
   8    -8.0471905575606e-14
   9    0.0015355837625893
  10    0.0011739387008169
  11    9.0429879118627e-05
  12    0.0011739387009902
  13    9.0429879267875e-05
 Sym= A
 Ene=               5
 Spin= Alpha
 Occup=    1.00000
   1      0.95679932768613
   2     0.057281109526288
   3     0.021179238844129
   4     -0.13318595334119
   5    6.5226772183438e-14
   6    0.0011953072518469
   7     -0.11157718189166
   8    2.9752254902392e-14
   9    0.0070663653166247
  10    0.0054021668646214
  11    0.0004161352711566
  12    0.0054021668645577
  13    0.00041613527110205
 Sym= A
 Ene=               6
 Spin= Alpha
 Occup=    0.00000
   1    2.9868269956449e-15
   2    -4.0327471601211e-14
   3    5.0125514914491e-14
   4    -9.2834565760562e-16
   5      0.40088898484477
   6    2.2093152407211e-14
   7    1.1263590063099e-15
   8      0.79399807919067
   9    -2.6841503317619e-14
  10    -0.050830455046801
  11      -1.3346434296852
  12     0.050830455046804
  13       1.3346434296852
 Sym= A
 Ene=               7
 Spin= Alpha
 Occup=    0.00000
   1    -2.1589531391359e-13
   2    3.0648912323889e-13
   3    1.2801187903185e-12
   4    1.809688658591e-13
   5      0.51767783954964
   6    -2.3272573475781e-13
   7    -1.9180334497832e-13
   8    -0.015376764809386
   9    -2.1041630718642e-12
  10     -0.92522060647286
  11      0.87112001388179
  12      0.92522060646613
  13     -0.87112001387955
 Sym= A
 Ene=               8
 Spin= Alpha
 Occup=    0.00000
   1     0.076539997120586
   2     -0.45567091743487
   3      0.26319872379519
   4    7.3325184404481e-14
   5    1.2900341857072e-12
   6      0.29924588977704
   7    -7.7926292255038e-14
   8    4.481307391689e-13
   9      0.26270714692727
  10      0.97990550477257
  11     -0.55893665628073
  12      0.97990550477831
  13     -0.55893665628561
 Sym= A
 Ene=               9
 Spin= Alpha
 Occup=    0.00000
   1    2.601689159164e-13
   2    -5.1407606928642e-12
   3    7.0578270699675e-12
   4    -3.5115593986754e-12
   5     -0.87810532268121
   6    -2.4183787323358e-12
   7    3.7234069211284e-12
   8        1.734541292063
   9    1.1238269486631e-12
  10     -0.33629547725912
  11     -0.64346489377147
  12      0.33629547725676
  13      0.64346489376966
 Sym= A
 Ene=              10
 Spin= Alpha
 Occup=    0.00000
   1      0.04461912612129
   2      -1.5461228349407
   3       2.6533937015956
   4      0.23810419075892
   5    5.8369724182543e-13
   6      0.31505168032138
   7     -0.25248276888578
   8    -2.0342115929891e-12
   9      -1.0240853075483
  10     -0.48614269783814
  11     -0.61180446504898
  12     -0.48614269784048
  13     -0.61180446504909
 Sym= A
 Ene=              11
 Spin= Alpha
 Occup=    0.00000
   1    -0.050858861473216
   2      0.68136600389248
   3     -0.71045082576559
   4      0.54888842266091
   5    -4.6590303292721e-12
   6      0.67866806498712
   7     -0.58203456361292
   8    8.8441586728662e-12
   9     -0.67478923834673
  10     0.031600186280625
  11     0.025347789872036
  12     0.031600186283407
  13     0.025347789879194
 Sym= A
 Ene=              12
 Spin= Alpha
 Occup=    0.00000
   1    -0.022613775608557
   2    0.0076577671111224
   3      0.31625306842649
   4     -0.76465954355426
   5    9.9205400958067e-13
   6       0.5852646094118
   7      0.81083561862628
   8    -2.2547747836996e-12
   9     -0.80326337291438
  10      -0.1286947087592
  11      -0.1723121090434
  12     -0.12869470876058
  13     -0.17231210904462
