[Molden Format]
made by pyscf v[2.11.0]
[Atoms] (AU)
O   1   8     0.00000000000000     0.00000000000000     0.22166487441148
H   2   1     0.00000000000000     1.43090062152066    -0.88665949764593
H   3   1     0.00000000000000    -1.43090062152066    -0.88665949764593
[GTO]
1 0
 s    6 1.00
             5484.6717   0.001831099805527
             825.23495   0.013950098518422
             188.04696    0.06844509273075
               52.9645    0.23271427528445
              16.89757    0.47019295006289
             5.7996353    0.35852086192309
 s    3 1.00
             15.539616   -0.11077750382508
             3.5999336   -0.14802630511126
             1.0137618     1.1307670390447
 s    1 1.00
             0.2700058                   1
 p    3 1.00
             15.539616   0.070874299543311
             3.5999336    0.33975279781076
             1.0137618    0.72715859531445
 p    1 1.00
             0.2700058                   1

2 0
 s    3 1.00
             18.731137    0.03349459952309
             2.8253937    0.23472694665786
             0.6401217    0.81375731841339
 s    1 1.00
             0.1612778                   1

3 0
 s    3 1.00
             18.731137    0.03349459952309
             2.8253937    0.23472694665786
             0.6401217    0.81375731841339
 s    1 1.00
             0.1612778                   1

[5d]
[7f]
[9g]

[MO]
 Sym= A
 Ene=               0
 Spin= Alpha
 Occup=    1.00000
   1     -0.05244252697464
   2      0.11515482981534
   3      0.30640889381161
   4    -1.190577421739e-12
   5    7.8810670602745e-12
   6      0.54798758587943
   7     -1.0138943079e-12
   8    3.9091782372882e-12
   9      0.40016851536228
  10     -0.15723036738485
  11     -0.10887759075182
  12     -0.15723036739233
  13     -0.10887759075694
 Sym= A
 Ene=               1
 Spin= Alpha
 Occup=    1.00000
   1    7.7248716200896e-13
   2    -1.6903655102124e-12
   3    -4.6246411155644e-12
   4    5.7674097780183e-13
   5      0.51285261144915
   6    -8.4308554824722e-12
   7    4.9104635912197e-13
   8      0.25432400896985
   9    -6.1514613645194e-12
  10       0.2433228309934
  11      0.16654452884211
  12     -0.24332283098852
  13     -0.16654452883876
 Sym= A
 Ene=               2
 Spin= Alpha
 Occup=    1.00000
   1     -0.22490236070277
   2      0.47550331313714
   3      0.49894357412174
   4    -5.3158186837442e-12
   5    -8.4813901101741e-14
   6    -0.055998531425929
   7    -4.5275452051458e-12
   8    -3.9680550424518e-14
   9    -0.0032948197177548
  10      0.12683629294505
  11    -0.0029972508136962
  12      0.12683629294513
  13    -0.0029972508136346
 Sym= A
 Ene=               3
 Spin= Alpha
 Occup=    1.00000
   1      0.99383527946818
   2     0.030465315899926
   3    -0.010862261216481
   4    9.2845676030466e-12
   5    -2.0450836568338e-15
   6    -0.0032668859481227
   7    7.9077479591614e-12
   8    -1.0111738097488e-15
   9    0.0012856506189024
  10    0.0013146625698594
  11     0.003279695049338
  12    0.0013146625698614
  13    0.0032796950493393
 Sym= A
 Ene=               4
 Spin= Alpha
 Occup=    1.00000
   1    -1.6840923476168e-11
   2    3.8257825776331e-12
   3    5.0074598091492e-12
   4      0.62260816691624
   5    -4.7499275460124e-13
   6    6.1866285897041e-13
   7      0.53028085087881
   8    -2.3604027883494e-13
   9    7.1787851957686e-13
  10    5.3717818599401e-13
  11    -4.3571096872988e-13
  12    9.8830086539561e-13
  13    -1.2917091776521e-13
 Sym= A
 Ene=               5
 Spin= Alpha
 Occup=    1.00000
   1    -1.549816469833e-12
   2    1.9627939535579e-12
   3    1.8446674155752e-11
   4    -1.2459151583225e-14
   5     -0.43949192972847
   6    -4.5588756535218e-12
   7    1.2745396721901e-14
   8      -0.8986042465582
   9    -9.1444764529584e-12
  10      0.35735368927403
  11       1.0779913118664
  12     -0.35735368928539
  13      -1.0779913118908
 Sym= A
 Ene=               6
 Spin= Alpha
 Occup=    0.00000
   1     -0.10363744572524
   2      0.11426659167151
   3       1.2593711147864
   4    -1.2175666322855e-13
   5    6.4696427618953e-12
   6     -0.32587876964674
   7    1.2872002251783e-13
   8    1.3695545178415e-11
   9     -0.60700871636802
  10     -0.40749317596998
  11     -0.80447212426222
  12     -0.40749317595836
  13     -0.80447212423103
 Sym= A
 Ene=               7
 Spin= Alpha
 Occup=    0.00000
   1    -7.1139227606624e-14
   2    1.3186826724018e-12
   3    -1.2704702160156e-12
   4    -2.3170132654517e-13
   5     0.099182232157749
   6    3.233161853045e-12
   7    2.4377003248981e-13
   8      0.24461983918498
   9    -2.8012466494407e-12
  10     -0.91806201174275
  11       1.0162412902017
  12      0.91806201174483
  13      -1.0162412902032
 Sym= A
 Ene=               8
 Spin= Alpha
 Occup=    0.00000
   1    4.0144549764901e-14
   2    -7.0507115936719e-13
   3    6.0432623457313e-13
   4    -2.5990756617358e-13
   5     -0.99247564895709
   6    -6.6138865818138e-13
   7    2.741183178107e-13
   8        1.660998788963
   9    4.2207147255957e-13
  10    -0.042185563121498
  11     -0.88107151680387
  12     0.042185563120035
  13      0.88107151680502
 Sym= A
 Ene=               9
 Spin= Alpha
 Occup=    0.00000
   1    -0.028301971169423
   2      0.40245139073515
   3     -0.72989027451146
   4      -0.7015989620741
   5    7.4690715798988e-13
   6     -0.36166511391474
   7      0.73992377815757
   8    -1.2066210622259e-12
   9      0.28138489129935
  10     -0.50562091126684
  11      0.64276745552586
  12     -0.50562091126499
  13      0.64276745552165
 Sym= A
 Ene=              10
 Spin= Alpha
 Occup=    0.00000
   1     0.059725553619446
   2     -0.42189124383318
   3      0.19086830169888
   4    -0.086762299741094
   5    5.5531339972938e-13
   6      -0.7707276368571
   7     0.091501686998347
   8    -1.0246258497427e-13
   9       1.1133254579878
  10      0.48375925330528
  11      -0.1661480358411
  12       0.4837592533096
  13     -0.16614803584685
 Sym= A
 Ene=              11
 Spin= Alpha
 Occup=    0.00000
   1     0.010558562974636
   2    -0.062289443935654
   3      0.26171260089828
   4     -0.65823868811296
   5    -5.9618997760689e-13
   6      0.45078168720845
   7      0.69419495091355
   8    7.4945701382145e-13
   9     -0.29392174600999
  10      0.56732985158299
  11     -0.56988024986276
  12      0.56732985157962
  13     -0.56988024985697
 Sym= A
 Ene=              12
 Spin= Alpha
 Occup=    0.00000
   1     0.062331238892517
   2      -1.6521861971262
   3          2.6084333791
   4     -0.12392907165435
   5    4.9072824667831e-13
   6       0.1927878911412
   7      0.13069869238541
   8    -9.2884044584438e-13
   9     -0.81129761508378
  10     -0.48953336947665
  11     -0.49570585088403
  12     -0.48953336947579
  13     -0.49570585088658
