[Molden Format]
made by pyscf v[2.11.0]
[Atoms] (AU)
O   1   8     0.00000000000000     0.00000000000000     0.22166487441148
H   2   1     0.00000000000000     1.43090062152066    -0.88665949764593
H   3   1     0.00000000000000    -1.43090062152066    -0.88665949764593
[GTO]
1 0
 s    6 1.00
             5484.6717   0.001831099805527
             825.23495   0.013950098518422
             188.04696    0.06844509273075
               52.9645    0.23271427528445
              16.89757    0.47019295006289
             5.7996353    0.35852086192309
 s    3 1.00
             15.539616   -0.11077750382508
             3.5999336   -0.14802630511126
             1.0137618     1.1307670390447
 s    1 1.00
             0.2700058                   1
 p    3 1.00
             15.539616   0.070874299543311
             3.5999336    0.33975279781076
             1.0137618    0.72715859531445
 p    1 1.00
             0.2700058                   1

2 0
 s    3 1.00
             18.731137    0.03349459952309
             2.8253937    0.23472694665786
             0.6401217    0.81375731841339
 s    1 1.00
             0.1612778                   1

3 0
 s    3 1.00
             18.731137    0.03349459952309
             2.8253937    0.23472694665786
             0.6401217    0.81375731841339
 s    1 1.00
             0.1612778                   1

[5d]
[7f]
[9g]

[MO]
 Sym= A
 Ene=               0
 Spin= Alpha
 Occup=    1.00000
   1    -5.2390675699771e-15
   2    1.1787632529759e-14
   3    2.4086007616983e-14
   4      0.64622412089087
   5    -6.2218201924545e-15
   6    4.0088579227352e-14
   7      0.50502032483335
   8    -2.7405049805385e-15
   9    2.7703779551958e-14
  10    -1.4264238159294e-14
  11    -9.4336252549331e-15
  12    -7.987143444606e-15
  13    -5.2300420859653e-15
 Sym= A
 Ene=               1
 Spin= Alpha
 Occup=    1.00000
   1     -0.15870281258289
   2      0.50491318090538
   3      0.56749550205616
   4    -1.804324257197e-14
   5    1.2115538515894e-12
   6      0.11603331734701
   7    -1.4154911252632e-14
   8    5.483128352347e-13
   9      0.11248421435613
  10     0.068796198910016
  11    -0.047468723481927
  12     0.068796198908761
  13    -0.047468723482626
 Sym= A
 Ene=               2
 Spin= Alpha
 Occup=    1.00000
   1    0.0012972178567346
   2    -0.033398643595787
   3      0.11669298556854
   4    -4.2937109091492e-14
   5     -0.18824782662338
   6      0.51624996761439
   7    -3.3616795970227e-14
   8    -0.085114319700392
   9      0.34064500229576
  10     -0.27996110757192
  11      -0.1399636062862
  12     -0.08497359706147
  13    -0.031104384803961
 Sym= A
 Ene=               3
 Spin= Alpha
 Occup=    1.00000
   1    -0.029601826067137
   2    -0.012842795572179
   3     0.047126582909718
   4    -8.5790480444372e-15
   5      0.48105686607068
   6      0.20189699561187
   7    -6.6215184177874e-15
   8      0.21750491693445
   9      0.13316942136887
  10      0.17802527028259
  11      0.10550148189907
  12     -0.32025448365445
  13     -0.17268221279987
 Sym= A
 Ene=               4
 Spin= Alpha
 Occup=    1.00000
   1       1.0079758663594
   2    -0.0075928313522797
   3    -0.048947644955172
   4    3.1395846348639e-16
   5     0.014369748923177
   6    0.0041057376746351
   7    2.520041605085e-16
   8    0.0064971342607243
   9    0.0044271359466499
  10    -0.0022249133379962
  11    0.0081414920059519
  12    -0.017109130698955
  13    -0.00016819054779052
 Sym= A
 Ene=               5
 Spin= Alpha
 Occup=    0.00000
   1    -0.088058924621573
   2      0.16070417416052
   3       1.0756188046539
   4    -2.4375132388645e-15
   5    1.685730787265e-13
   6     -0.31062374174085
   7    2.5110207158107e-15
   8    2.4006143385093e-13
   9     -0.41582159088689
  10    -0.096776611832853
  11     -0.92821598350909
  12    -0.096776611832811
  13     -0.92821598350815
 Sym= A
 Ene=               6
 Spin= Alpha
 Occup=    0.00000
   1    2.2593715752745e-14
   2    -1.3867106998803e-13
   3    -1.1507151364486e-14
   4     -0.95835311898027
   5    -1.7565728375465e-12
   6    -2.9889994116612e-13
   7       1.0397118767166
   8    -5.3143176010647e-12
   9    4.4269824273877e-13
  10    3.9821440347785e-12
  11    2.5904098463273e-12
  12    -3.7355752097385e-12
  13    -2.5264498273334e-12
 Sym= A
 Ene=               7
 Spin= Alpha
 Occup=    0.00000
   1    -0.0028409585038031
   2     0.042190338503978
   3    -0.050428760886567
   4    -4.1581371532284e-12
   5      0.46227436136417
   6     0.022401040249025
   7    4.5108082959947e-12
   8      0.85586856585478
   9    -0.021319431651497
  10      -0.3463277781602
  11      -1.0585147913362
  12      0.34400455846484
  13       1.0761469496253
 Sym= A
 Ene=               8
 Spin= Alpha
 Occup=    0.00000
   1    -0.027662691916078
   2      0.69373974735161
   3      -1.0973965818115
   4    2.156727525957e-12
   5     -0.24051249435974
   6    -0.014465357672216
   7    -2.3397108496375e-12
   8    -0.021720507428386
   9      0.24082607980144
  10      0.95766469450445
  11     -0.76368402596199
  12     -0.69582785733499
  13       1.2825622274663
 Sym= A
 Ene=               9
 Spin= Alpha
 Occup=    0.00000
   1     0.043377738388497
   2      -1.2130843296833
   3        1.926300974437
   4    1.2527347903645e-12
   5      0.48393091669714
   6     -0.10865355580816
   7    -1.3590654296903e-12
   8     -0.98523024602281
   9     -0.35658313469049
  10     0.011357162303553
  11     -0.29575414619793
  12     -0.75639691279385
  13     -0.41651521491144
 Sym= A
 Ene=              10
 Spin= Alpha
 Occup=    0.00000
   1     0.078269815060669
   2     -0.31807563363902
   3     -0.18460687924463
   4    2.2578199807579e-13
   5    -0.074326306963539
   6     -0.43426006747871
   7    -2.44873218285e-13
   8      0.15039089214517
   9       1.1037212022997
  10      0.86499058035448
  11     -0.33475236785479
  12      0.82846849444304
  13    -0.069682044113396
 Sym= A
 Ene=              11
 Spin= Alpha
 Occup=    0.00000
   1    0.0066217010977474
   2     -0.50649155438703
   3      0.79756492790751
   4    -2.1732740513026e-13
   5     -0.71027624499449
   6      -0.4417350769215
   7    2.3588287802418e-13
   8       1.2247394537227
   9     0.082217374179374
  10     -0.51695058869471
  11     -0.60627835444645
  12      -0.5333774066372
  13      0.85366001612189
 Sym= A
 Ene=              12
 Spin= Alpha
 Occup=    0.00000
   1      0.03855118254425
   2     -0.85584584339739
   3       1.5118416321177
   4    -3.28804385212e-14
   5     -0.41013025082957
   6      0.74923658798612
   7    3.5648835892679e-14
   8       0.6403635818685
   9     -0.92841549478582
  10      0.33578712668225
  11      -1.2262680562632
  12      0.14103139612435
  13     -0.25371095263571
