[Molden Format]
made by pyscf v[2.11.0]
[Atoms] (AU)
O   1   8     0.00000000000000     0.00000000000000     0.22166487441148
H   2   1     0.00000000000000     1.43090062152066    -0.88665949764593
H   3   1     0.00000000000000    -1.43090062152066    -0.88665949764593
[GTO]
1 0
 s    6 1.00
             5484.6717   0.001831099805527
             825.23495   0.013950098518422
             188.04696    0.06844509273075
               52.9645    0.23271427528445
              16.89757    0.47019295006289
             5.7996353    0.35852086192309
 s    3 1.00
             15.539616   -0.11077750382508
             3.5999336   -0.14802630511126
             1.0137618     1.1307670390447
 s    1 1.00
             0.2700058                   1
 p    3 1.00
             15.539616   0.070874299543311
             3.5999336    0.33975279781076
             1.0137618    0.72715859531445
 p    1 1.00
             0.2700058                   1

2 0
 s    3 1.00
             18.731137    0.03349459952309
             2.8253937    0.23472694665786
             0.6401217    0.81375731841339
 s    1 1.00
             0.1612778                   1

3 0
 s    3 1.00
             18.731137    0.03349459952309
             2.8253937    0.23472694665786
             0.6401217    0.81375731841339
 s    1 1.00
             0.1612778                   1

[5d]
[7f]
[9g]

[MO]
 Sym= A
 Ene=               0
 Spin= Alpha
 Occup=    1.00000
   1    2.2258592824544e-14
   2    -4.9808316376501e-14
   3    -9.6538111045687e-14
   4      0.64622412089087
   5    -4.3527705867495e-15
   6    -1.5171122031113e-13
   7      0.50502032483335
   8    -2.9104983063439e-15
   9    -1.0460196267619e-13
  10    3.8178944207786e-14
  11    2.7469853017942e-14
  12    4.3194576488274e-14
  13    2.8778332139173e-14
 Sym= A
 Ene=               1
 Spin= Alpha
 Occup=    1.00000
   1     -0.15870281258309
   2       0.5049131809052
   3      0.56749550205682
   4    7.4933280455114e-14
   5    -1.2197389864169e-12
   6      0.11603331734987
   7    5.8542531381198e-14
   8    -5.4977878627874e-13
   9      0.11248421435802
  10     0.068796198907749
  11    -0.047468723483106
  12     0.068796198909011
  13    -0.047468723482395
 Sym= A
 Ene=               2
 Spin= Alpha
 Occup=    1.00000
   1    -0.020622223187151
   2    -0.025115102322965
   3     0.089368452683834
   4    1.1813127289685e-13
   5      0.36653177258473
   6      0.39063697440101
   7    9.2077945783226e-14
   8      0.16572357318389
   9      0.25772306475879
  10     0.051933565418766
  11     0.041156237330953
  12      -0.3277208462216
  13     -0.17080033145272
 Sym= A
 Ene=               3
 Spin= Alpha
 Occup=    1.00000
   1     0.011415241501453
   2     0.025344711957905
   3    -0.089481749318058
   4    -1.1018571170435e-13
   5      0.36428357870283
   6     -0.39315228340056
   7    -8.6256042584532e-14
   8      0.16470707543066
   9      -0.2593984607182
  10      0.32752052824126
  11      0.17052443845914
  12    -0.049805199259479
  13    -0.040132053504983
 Sym= A
 Ene=               4
 Spin= Alpha
 Occup=    1.00000
   1       1.0081357617979
   2    -0.0080582312795331
   3    -0.047332186167904
   4    1.1773199988808e-15
   5    0.0033728740931287
   6     0.011283584000522
   7    9.1659119834355e-16
   8    0.0015250103495009
   9     0.009163644331257
  10    -0.010458356238613
  11    0.0037732845719898
  12    -0.013951986600679
  13    0.0018228320513866
 Sym= A
 Ene=               5
 Spin= Alpha
 Occup=    0.00000
   1    -0.088058924621571
   2      0.16070417416053
   3       1.0756188046538
   4    2.4980520717241e-14
   5    -8.7431900782563e-14
   6     -0.31062374174092
   7    -2.7120027225039e-14
   8    -1.7462055645752e-13
   9     -0.41582159088679
  10    -0.096776611832793
  11      -0.9282159835083
  12    -0.096776611832833
  13     -0.92821598350888
 Sym= A
 Ene=               6
 Spin= Alpha
 Occup=    0.00000
   1    -4.7766366895382e-14
   2    5.7106775651402e-13
   3    -1.9689877741829e-13
   4     -0.95835311898027
   5    -7.1568313226537e-12
   6    1.7418423756846e-12
   7       1.0397118767166
   8    -1.676891950958e-11
   9    -1.7441697387947e-12
  10    5.4900732237052e-12
  11     2.08907287209e-11
  12    -4.4815450289141e-12
  13    -2.2208292045772e-11
 Sym= A
 Ene=               7
 Spin= Alpha
 Occup=    0.00000
   1    -0.0016831346268831
   2    -0.0027217566579933
   3     0.016021026839986
   4    -1.7242760863857e-11
   5      0.43226685756535
   6    -0.014232570415666
   7    1.8706628466817e-11
   8      0.80406064534944
   9    -0.009436298390258
  10     -0.22077505458726
  11       -1.211170730274
  12      0.14676743495748
  13       1.2423525016525
 Sym= A
 Ene=               8
 Spin= Alpha
 Occup=    0.00000
   1    -0.026769745198435
   2    -0.077221887154546
   3      0.47091705939437
   4    1.9135283577696e-12
   5      -0.2791365025857
   6      0.33541619131226
   7    -2.0756920273702e-12
   8     -0.16466243113943
   9     -0.70414125926713
  10      0.45249097703969
  11     -0.85050859153896
  12      -1.1884567192312
  13      0.72358206794884
 Sym= A
 Ene=               9
 Spin= Alpha
 Occup=    0.00000
   1    -0.017937652050546
   2      0.63121155175185
   3     -0.89830166535242
   4    1.4631969517961e-12
   5      0.57712976124466
   6      0.59362864261001
   7    -1.5875991764602e-12
   8      -0.9487987625995
   9     -0.26115428020328
  10      0.52316180224454
  11      0.37394956324504
  12      0.49842241501661
  13     -0.63371658784748
 Sym= A
 Ene=              10
 Spin= Alpha
 Occup=    0.00000
   1     0.080782890113476
   2     -0.54729052338647
   3      0.29498974442724
   4    -4.6778726664326e-14
   5    -0.090949922696917
   6     -0.20798740668632
   7    5.0791100512083e-14
   8     -0.12237767183274
   9      0.73566812860255
  10        1.193834697289
  11     -0.76437292619026
  12      0.38737926033226
  13     0.012690106726315
 Sym= A
 Ene=              11
 Spin= Alpha
 Occup=    0.00000
   1    -0.0010299828891463
   2      0.18891531120918
   3     -0.22528443134486
   4    -3.3913133029004e-13
   5     -0.73479270299686
   6      0.48013075731633
   7    3.680577726257e-13
   8        1.421183210652
   9     -0.30859885366184
  10      0.14429094127618
  11     -0.81297184803982
  12       0.5766111454441
  13      0.36317738267245
 Sym= A
 Ene=              12
 Spin= Alpha
 Occup=    0.00000
   1     0.052373471781991
   2      -1.5182858100518
   3       2.5897055701531
   4    1.5875378984533e-13
   5      0.19471454658919
   6      0.46765151479467
   7    -1.7239524616219e-13
   8     -0.16657354149755
   9      -1.0353610037491
  10     -0.43834239050891
  11     -0.44629186934651
  12    -0.021333781517774
  13      -1.0834375826143
