[Molden Format]
made by pyscf v[2.11.0]
[Atoms] (AU)
O   1   8     0.00000000000000     0.00000000000000     0.22166487441148
H   2   1     0.00000000000000     1.43090062152066    -0.88665949764593
H   3   1     0.00000000000000    -1.43090062152066    -0.88665949764593
[GTO]
1 0
 s    6 1.00
             5484.6717   0.001831099805527
             825.23495   0.013950098518422
             188.04696    0.06844509273075
               52.9645    0.23271427528445
              16.89757    0.47019295006289
             5.7996353    0.35852086192309
 s    3 1.00
             15.539616   -0.11077750382508
             3.5999336   -0.14802630511126
             1.0137618     1.1307670390447
 s    1 1.00
             0.2700058                   1
 p    3 1.00
             15.539616   0.070874299543311
             3.5999336    0.33975279781076
             1.0137618    0.72715859531445
 p    1 1.00
             0.2700058                   1

2 0
 s    3 1.00
             18.731137    0.03349459952309
             2.8253937    0.23472694665786
             0.6401217    0.81375731841339
 s    1 1.00
             0.1612778                   1

3 0
 s    3 1.00
             18.731137    0.03349459952309
             2.8253937    0.23472694665786
             0.6401217    0.81375731841339
 s    1 1.00
             0.1612778                   1

[5d]
[7f]
[9g]

[MO]
 Sym= A
 Ene=               0
 Spin= Alpha
 Occup=    1.00000
   1    -0.095699106358991
   2      0.21253448017347
   3      0.38471605030279
   4    1.9728029216097e-13
   5    9.9077651993023e-14
   6      0.54137590852797
   7    1.5410727979385e-13
   8    4.4862896690834e-14
   9      0.37453295383102
  10     -0.13816423001969
  11     -0.10342788835196
  12     -0.13816423001979
  13     -0.10342788835201
 Sym= A
 Ene=               1
 Spin= Alpha
 Occup=    1.00000
   1    4.0693491865248e-14
   2    -9.4958249266263e-14
   3    -1.2642393697676e-13
   4    2.5333862940351e-13
   5      0.51677794293709
   6    -8.3784523634588e-14
   7    1.9770841024497e-13
   8      0.23365583464216
   9    -6.188110471173e-14
  10      0.26763986173825
  11      0.14942017009279
  12     -0.26763986173823
  13     -0.14942017009275
 Sym= A
 Ene=               2
 Spin= Alpha
 Occup=    1.00000
   1    7.0579821714778e-14
   2    -1.0991314959732e-13
   3    -1.6037810615876e-13
   4      0.64622412089087
   5    -2.020365137278e-13
   6    -1.4867450069205e-13
   7      0.50502032483335
   8    -9.2291170663004e-14
   9    -1.0673176449759e-13
  10    -7.8309363778345e-14
  11    -2.6763097707115e-14
  12    1.3146752197774e-13
  13    8.886116802387e-14
 Sym= A
 Ene=               3
 Spin= Alpha
 Occup=    1.00000
   1     -0.20675798561155
   2      0.45861614849358
   3      0.43829509855882
   4    6.4014193429089e-14
   5    6.0666528169163e-14
   6     -0.16632622555378
   7    5.0043383933801e-14
   8    2.9353799865387e-14
   9     -0.07850474951977
  10      0.15520512323822
  11    0.0025866211497225
  12      0.15520512323816
  13    0.0025866211496929
 Sym= A
 Ene=               4
 Spin= Alpha
 Occup=    1.00000
   1      0.99507421692719
   2     0.027851413077212
   3    -0.013272215979622
   4    -1.3590559337433e-14
   5    1.0851215221816e-15
   6    -0.0021739535206203
   7    -1.0621273343213e-14
   8    5.2035080254421e-16
   9    0.0027351757270559
  10    7.4218029702143e-05
  11    0.0030873030537835
  12    7.4218029700998e-05
  13    0.0030873030537829
 Sym= A
 Ene=               5
 Spin= Alpha
 Occup=    0.00000
   1     -0.08962604086568
   2      0.17632470682975
   3       1.0662543964475
   4    7.5705962119526e-15
   5    7.4755912704087e-14
   6     -0.28309143440185
   7    -8.2319160910871e-15
   8    1.2482707939673e-13
   9     -0.44814814497512
  10    -0.097965542535539
  11     -0.93214575549427
  12    -0.097965542535518
  13     -0.93214575549381
 Sym= A
 Ene=               6
 Spin= Alpha
 Occup=    0.00000
   1    2.548820211294e-14
   2    -1.3758610937401e-13
   3    -6.4335334676797e-14
   4    8.9907621769812e-14
   5      0.58246569716936
   6    3.6909147135248e-14
   7    -9.755507071721e-14
   8      0.59816767226016
   9    1.2209437779409e-13
  10     -0.27086606185874
  11      -1.0019844156398
  12      0.27086606185892
  13         1.00198441564
 Sym= A
 Ene=               7
 Spin= Alpha
 Occup=    0.00000
   1    -1.9549798741601e-14
   2    2.1798132576489e-13
   3    -1.9656622579315e-13
   4     -0.95835311898027
   5    2.8584796725417e-13
   6    1.9623426306824e-13
   7       1.0397118767166
   8    -5.5737336575957e-13
   9    -2.4508490832807e-13
  10    1.9075840378495e-13
  11    4.0454518671081e-15
  12    -2.9465835584465e-13
  13    4.7114797862789e-14
 Sym= A
 Ene=               8
 Spin= Alpha
 Occup=    0.00000
   1     0.074951059950461
   2      -1.1529606626154
   3       1.7151742200728
   4    -1.8710911918638e-14
   5    1.5704559866344e-12
   6      0.57265985537451
   7    2.0195096729815e-14
   8    -3.0977411034749e-12
   9     -0.56193256090802
  10      0.50517625547688
  11     -0.86279927382733
  12      0.50517625547691
  13     -0.86279927383152
 Sym= A
 Ene=               9
 Spin= Alpha
 Occup=    0.00000
   1     0.066379163426608
   2     -0.72814426346473
   3      0.62978941381289
   4    -2.5110752600286e-13
   5    5.0020219795714e-12
   6     -0.80042002406655
   7    2.7239628002279e-13
   8    -8.9419200576878e-12
   9      0.97473652408961
  10      0.16928432919651
  11     -0.05934359448208
  12      0.16928432919862
  13    -0.059343594496376
 Sym= A
 Ene=              10
 Spin= Alpha
 Occup=    0.00000
   1    0.0017726324036386
   2      0.64836022185335
   3      -1.2738255608502
   4    1.9193702249392e-13
   5     -0.14694814681081
   6    -0.043528076702325
   7    -2.0801454755343e-13
   8     -0.20398491826469
   9      0.59046883384814
  10       1.3221079761141
  11     -0.65386853473411
  12     -0.17626322165202
  13      0.90064953195606
 Sym= A
 Ene=              11
 Spin= Alpha
 Occup=    0.00000
   1    -9.780369106988e-05
   2    -0.035772799277088
   3     0.070282390194511
   4    -2.8823293389779e-13
   5     -0.90436477078513
   6    0.0024016296742615
   7    3.1297266935672e-13
   8       1.7849942303794
   9    -0.032578684432558
  10     -0.12968204384753
  11      -1.0465880440954
  12     0.066460900703072
  13       1.0329720837351
 Sym= A
 Ene=              12
 Spin= Alpha
 Occup=    0.00000
   1    -0.0023809232917883
   2     -0.87084945003807
   3       1.7109474821546
   4    1.5110466854588e-13
   5    -0.072255512880442
   6     0.058465032829499
   7    -1.6375076835957e-13
   8     -0.22519385774012
   9     -0.79309223775054
  10     -0.20771631437401
  11     -0.70170142948094
  12      -1.3313328755904
  13      0.37023585144749
