[Molden Format]
made by pyscf v[2.11.0]
[Atoms] (AU)
O   1   8     0.00000000000000     0.00000000000000     0.22166487441148
H   2   1     0.00000000000000     1.43090062152066    -0.88665949764593
H   3   1     0.00000000000000    -1.43090062152066    -0.88665949764593
[GTO]
1 0
 s    6 1.00
             5484.6717   0.001831099805527
             825.23495   0.013950098518422
             188.04696    0.06844509273075
               52.9645    0.23271427528445
              16.89757    0.47019295006289
             5.7996353    0.35852086192309
 s    3 1.00
             15.539616   -0.11077750382508
             3.5999336   -0.14802630511126
             1.0137618     1.1307670390447
 s    1 1.00
             0.2700058                   1
 p    3 1.00
             15.539616   0.070874299543311
             3.5999336    0.33975279781076
             1.0137618    0.72715859531445
 p    1 1.00
             0.2700058                   1

2 0
 s    3 1.00
             18.731137    0.03349459952309
             2.8253937    0.23472694665786
             0.6401217    0.81375731841339
 s    1 1.00
             0.1612778                   1

3 0
 s    3 1.00
             18.731137    0.03349459952309
             2.8253937    0.23472694665786
             0.6401217    0.81375731841339
 s    1 1.00
             0.1612778                   1

[5d]
[7f]
[9g]

[MO]
 Sym= A
 Ene=               0
 Spin= Alpha
 Occup=    1.00000
   1     -0.09569910635899
   2      0.21253448017347
   3      0.38471605030279
   4    -5.2689744455204e-14
   5    1.207416878149e-14
   6      0.54137590852797
   7    -4.1226785971802e-14
   8    5.611144701821e-15
   9      0.37453295383102
  10     -0.13816423001973
  11     -0.10342788835199
  12     -0.13816423001975
  13     -0.10342788835199
 Sym= A
 Ene=               1
 Spin= Alpha
 Occup=    1.00000
   1    4.1351631464125e-14
   2    -8.6829438637928e-14
   3    -8.8854380722111e-14
   4    6.3732982365128e-14
   5      0.51677794293709
   6    1.7495888051413e-14
   7    4.9906831279691e-14
   8      0.23365583464216
   9    6.0572658113134e-15
  10      0.26763986173822
  11      0.14942017009278
  12     -0.26763986173827
  13     -0.14942017009277
 Sym= A
 Ene=               2
 Spin= Alpha
 Occup=    1.00000
   1    -2.1419817979837e-14
   2    3.3319205580781e-14
   3    4.6666152220697e-14
   4      0.64622412089087
   5    -5.1042787837849e-14
   6    3.8176028616999e-14
   7      0.50502032483335
   8    -2.3005844760972e-14
   9    2.792130920471e-14
  10    -3.2150535271955e-14
  11    -2.3296579888836e-14
  12    2.0552215752325e-14
  13    6.8258982361918e-15
 Sym= A
 Ene=               3
 Spin= Alpha
 Occup=    1.00000
   1     -0.20675798561155
   2      0.45861614849357
   3      0.43829509855882
   4    -2.2673859424286e-14
   5    9.2722386845172e-14
   6     -0.16632622555378
   7    -1.775397615315e-14
   8    4.2436765213448e-14
   9     -0.07850474951977
  10      0.15520512323824
  11    0.0025866211497344
  12      0.15520512323814
  13    0.0025866211496811
 Sym= A
 Ene=               4
 Spin= Alpha
 Occup=    1.00000
   1      0.99507421692719
   2     0.027851413077211
   3    -0.013272215979623
   4    4.1264754459206e-15
   5    -1.0394645317872e-15
   6    -0.0021739535206203
   7    3.2256687483359e-15
   8    -4.7390091871685e-16
   9     0.002735175727056
  10    7.4218029700818e-05
  11     0.003087303053783
  12    7.421802970188e-05
  13    0.0030873030537836
 Sym= A
 Ene=               5
 Spin= Alpha
 Occup=    0.00000
   1    -0.089626040865672
   2      0.17632470682965
   3       1.0662543964476
   4    -2.1846827427573e-15
   5    -5.1634902298859e-15
   6     -0.28309143440181
   7    2.2333251762029e-15
   8    4.0634948936022e-15
   9     -0.44814814497514
  10    -0.097965542535495
  11     -0.93214575549408
  12    -0.097965542535452
  13     -0.93214575549415
 Sym= A
 Ene=               6
 Spin= Alpha
 Occup=    0.00000
   1    -5.235635218904e-15
   2    -2.6780691432233e-14
   3    1.0156326536803e-13
   4    1.8555291552874e-15
   5      0.58246569716933
   6    -1.9103011660587e-14
   7    -2.3400774709566e-15
   8      0.59816767226061
   9    -6.5638832725947e-14
  10     -0.27086606185955
  11      -1.0019844156394
  12      0.27086606185935
  13       1.0019844156394
 Sym= A
 Ene=               7
 Spin= Alpha
 Occup=    0.00000
   1    6.3299928799432e-15
   2    -7.4719398461845e-14
   3    7.9582093298902e-14
   4     -0.95835311898027
   5    2.4144715912973e-13
   6    -3.2554943243465e-14
   7       1.0397118767166
   8    -3.240423064904e-13
   9    4.7031469433535e-14
  10    -1.7828504662996e-13
  11    4.3189823036566e-13
  12    2.3118118568522e-13
  13    -4.821660601433e-13
 Sym= A
 Ene=               8
 Spin= Alpha
 Occup=    0.00000
   1     0.074951059950461
   2      -1.1529606626165
   3       1.7151742200748
   4    2.6604593591592e-14
   5    2.5240004132268e-12
   6      0.57265985537467
   7    -2.8901563914203e-14
   8    -4.9771538510879e-12
   9     -0.56193256090904
  10      0.50517625547631
  11     -0.86279927382682
  12      0.50517625547556
  13     -0.86279927383228
 Sym= A
 Ene=               9
 Spin= Alpha
 Occup=    0.00000
   1     0.066379163426587
   2     -0.72814426347503
   3      0.62978941383306
   4    5.8547768596565e-14
   5    -1.1329221066104e-12
   6     -0.80042002406582
   7    -6.3415078649617e-14
   8    2.961224809744e-12
   9      0.97473652408027
  10      0.16928432918735
  11    -0.059343594491652
  12      0.16928432918981
  13    -0.059343594490782
 Sym= A
 Ene=              10
 Spin= Alpha
 Occup=    0.00000
   1    -0.0017726324041262
   2     -0.64836022193861
   3       1.2738255610206
   4    -1.9072194879847e-13
   5     -0.14694814678595
   6     0.043528076710595
   7    2.0701533416469e-13
   8     -0.20398491827601
   9     -0.59046883393132
  10      0.17626322151874
  11     -0.90064953189901
  12      -1.3221079761381
  13      0.65386853464465
 Sym= A
 Ene=              11
 Spin= Alpha
 Occup=    0.00000
   1    9.7803691706661e-05
   2     0.035772799276144
   3     -0.07028239019849
   4    -2.1299902542068e-13
   5     -0.90436477078967
   6    -0.0024016296754284
   7    2.3111401199864e-13
   8       1.7849942303703
   9     0.032578684440675
  10    -0.066460900666482
  11      -1.0329720837648
  12      0.12968204382986
  13       1.0465880441195
 Sym= A
 Ene=              12
 Spin= Alpha
 Occup=    0.00000
   1    -0.0023809232922711
   2     -0.87084944996466
   3       1.7109474820181
   4    1.3084234882643e-13
   5     0.072255512874449
   6     0.058465032831969
   7    -1.420415214066e-13
   8       0.2251938578008
   9     -0.79309223769903
  10      -1.3313328756114
  11       0.3702358515161
  12     -0.20771631424037
  13     -0.70170142952214
