[Molden Format]
made by pyscf v[2.11.0]
[Atoms] (AU)
O   1   8     0.00000000000000     0.00000000000000     0.22166487441148
H   2   1     0.00000000000000     1.43090062152066    -0.88665949764593
H   3   1     0.00000000000000    -1.43090062152066    -0.88665949764593
[GTO]
1 0
 s    6 1.00
             5484.6717   0.001831099805527
             825.23495   0.013950098518422
             188.04696    0.06844509273075
               52.9645    0.23271427528445
              16.89757    0.47019295006289
             5.7996353    0.35852086192309
 s    3 1.00
             15.539616   -0.11077750382508
             3.5999336   -0.14802630511126
             1.0137618     1.1307670390447
 s    1 1.00
             0.2700058                   1
 p    3 1.00
             15.539616   0.070874299543311
             3.5999336    0.33975279781076
             1.0137618    0.72715859531445
 p    1 1.00
             0.2700058                   1

2 0
 s    3 1.00
             18.731137    0.03349459952309
             2.8253937    0.23472694665786
             0.6401217    0.81375731841339
 s    1 1.00
             0.1612778                   1

3 0
 s    3 1.00
             18.731137    0.03349459952309
             2.8253937    0.23472694665786
             0.6401217    0.81375731841339
 s    1 1.00
             0.1612778                   1

[5d]
[7f]
[9g]

[MO]
 Sym= A
 Ene=               0
 Spin= Alpha
 Occup=    1.00000
   1    -3.1396012578858e-14
   2    6.8999363713693e-14
   3    1.4477871411597e-13
   4      0.64622412089087
   5    -1.0559935241802e-14
   6    2.4410658512303e-13
   7      0.50502032483335
   8    -4.7019391061283e-15
   9    1.6724908074967e-13
  10    -7.3500286630997e-14
  11    -4.8391701515635e-14
  12    -6.2729762860832e-14
  13    -4.1679490037682e-14
 Sym= A
 Ene=               1
 Spin= Alpha
 Occup=    1.00000
   1    8.1589290627362e-13
   2    -2.0046930674105e-12
   3    -3.7117346115249e-12
   4    1.3109754054341e-14
   5      0.51677794293709
   6    -5.3956784546376e-12
   7    1.0345078044015e-14
   8      0.23365583464216
   9    -3.7246015053247e-12
  10      0.26763986173964
  11       0.1494201700938
  12     -0.26763986173684
  13     -0.14942017009175
 Sym= A
 Ene=               2
 Spin= Alpha
 Occup=    1.00000
   1     -0.11968690710297
   2      0.26218967622047
   3      0.43110700923758
   4    -2.7589860332071e-13
   5    5.0713730988358e-12
   6      0.51951531437145
   7    -2.156667150999e-13
   8    2.2931773127349e-12
   9      0.36347010417257
  10     -0.12004073024936
  11      -0.1025029326301
  12     -0.12004073025462
  13     -0.10250293263303
 Sym= A
 Ene=               3
 Spin= Alpha
 Occup=    1.00000
   1     -0.21233441502319
   2      0.43156059427438
   3      0.39293749089437
   4    6.4221658024161e-14
   5    -6.8339193948248e-13
   6     -0.22546066970137
   7    5.0160130560409e-14
   8    -3.084954506385e-13
   9     -0.11972237667029
  10      0.16958761279947
  11     0.014022720979607
  12      0.16958761280018
  13     0.014022720980002
 Sym= A
 Ene=               4
 Spin= Alpha
 Occup=    1.00000
   1      0.99129663634565
   2     0.035880430390824
   3    -0.0056620962672532
   4    9.2710289201947e-16
   5    4.0590999329029e-14
   6    -0.0053233698635304
   7    7.2478679184345e-16
   8    1.8357909918184e-14
   9    0.0012026163172653
  10    0.0028731359297677
  11    0.0031721028231439
  12    0.0028731359297257
  13    0.0031721028231204
 Sym= A
 Ene=               5
 Spin= Alpha
 Occup=    0.00000
   1    3.2327387601184e-14
   2    -6.1131479653338e-14
   3    -3.8425425443994e-13
   4    1.0307481592925e-15
   5      0.44810029916976
   6    1.4242119634617e-13
   7    -1.4116440920713e-15
   8      0.72121480950703
   9    1.2277449897644e-13
  10     -0.11404267551412
  11      -1.2529182692781
  12      0.11404267551421
  13       1.2529182692787
 Sym= A
 Ene=               6
 Spin= Alpha
 Occup=    0.00000
   1    -3.3342343394313e-14
   2    -6.5368253227538e-13
   3    4.022151083936e-12
   4     -0.95835311898027
   5    1.6183537271607e-12
   6    -3.2439047567402e-12
   7       1.0397118767166
   8    -2.0179414175259e-12
   9    3.230890420738e-12
  10    3.1314673647134e-12
  11    -3.5242698095038e-12
  12    4.8819437809302e-12
  13    -7.6577548624077e-12
 Sym= A
 Ene=               7
 Spin= Alpha
 Occup=    0.00000
   1     0.037028245459442
   2     -0.53798434266369
   3      0.54300649164997
   4    -2.3786370477671e-12
   5     -0.15052218490676
   6     0.087240111027137
   7    2.5807760615197e-12
   8     -0.50956964127823
   9     -0.13302674472414
  10      0.69731956485627
  11     -0.49349081712163
  12      -1.0682833460417
  13      0.71052192129361
 Sym= A
 Ene=               8
 Spin= Alpha
 Occup=    0.00000
   1     0.056509294474285
   2     -0.68112194005916
   3      0.67739280516519
   4    -3.7246476440818e-12
   5     -0.27668338608531
   6      0.83864257596567
   7    4.0408272222496e-12
   8      0.68757454607946
   9     -0.77440494943185
  10     -0.23243353376605
  11     -0.18874178655049
  12      0.25499987201142
  13       0.1164585163127
 Sym= A
 Ene=               9
 Spin= Alpha
 Occup=    0.00000
   1    -0.017440683291054
   2      0.20056671771172
   3     -0.19918886093932
   4    -2.9096739000751e-13
   5     -0.93586366721386
   6     -0.30768379287694
   7    3.1576441040532e-13
   8       1.5390416150486
   9       0.2784229654506
  10     0.054708507391398
  11     -0.95188176791584
  12     -0.10444894842943
  13       1.0044815964771
 Sym= A
 Ene=              10
 Spin= Alpha
 Occup=    0.00000
   1      0.11370264851022
   2     -0.64700420848999
   3     -0.08491543144695
   4    2.6299514265477e-12
   5     0.030776745306234
   6     -0.30402515708528
   7    -2.8531201343674e-12
   8     0.043742519650001
   9       1.0586441691033
  10      0.59275650884196
  11      0.16104372472648
  12      0.81484100178676
  13    -0.014130284144102
 Sym= A
 Ene=              11
 Spin= Alpha
 Occup=    0.00000
   1    -0.012221621125167
   2     -0.23085742791909
   3       1.0543307637049
   4    4.2060859392699e-12
   5    -0.062757241996721
   6      0.29967832675873
   7    -4.5632344874676e-12
   8     -0.08382292704224
   9     -0.47492336917642
  10      0.78082823817673
  11       -1.255513067545
  12      0.34032137031105
  13     -0.90462511065623
 Sym= A
 Ene=              12
 Spin= Alpha
 Occup=    0.00000
   1      0.01092123868808
   2      -1.3435554841581
   3       2.6679675700534
   4    1.2742623620726e-12
   5     0.056794000762005
   6     -0.25735381715271
   7    -1.3825019578483e-12
   8     0.078559060027027
   9      -0.6357894263669
  10     -0.81081885299987
  11     -0.52801546992792
  12     -0.40596164147966
  13      -0.8487346517696
