[Molden Format]
made by pyscf v[2.11.0]
[Atoms] (AU)
O   1   8     0.00000000000000     0.00000000000000     0.22166487441148
H   2   1     0.00000000000000     1.43090062152066    -0.88665949764593
H   3   1     0.00000000000000    -1.43090062152066    -0.88665949764593
[GTO]
1 0
 s    6 1.00
             5484.6717   0.001831099805527
             825.23495   0.013950098518422
             188.04696    0.06844509273075
               52.9645    0.23271427528445
              16.89757    0.47019295006289
             5.7996353    0.35852086192309
 s    3 1.00
             15.539616   -0.11077750382508
             3.5999336   -0.14802630511126
             1.0137618     1.1307670390447
 s    1 1.00
             0.2700058                   1
 p    3 1.00
             15.539616   0.070874299543311
             3.5999336    0.33975279781076
             1.0137618    0.72715859531445
 p    1 1.00
             0.2700058                   1

2 0
 s    3 1.00
             18.731137    0.03349459952309
             2.8253937    0.23472694665786
             0.6401217    0.81375731841339
 s    1 1.00
             0.1612778                   1

3 0
 s    3 1.00
             18.731137    0.03349459952309
             2.8253937    0.23472694665786
             0.6401217    0.81375731841339
 s    1 1.00
             0.1612778                   1

[5d]
[7f]
[9g]

[MO]
 Sym= A
 Ene=               0
 Spin= Alpha
 Occup=    1.00000
   1    1.5418684340326e-14
   2    -3.4440792508653e-14
   3    -6.4175757888418e-14
   4      0.64622412089087
   5    -2.9871595358666e-14
   6    -9.7076789951908e-14
   7      0.50502032483335
   8    -1.4448572604331e-14
   9    -6.7229150594332e-14
  10    9.7102345088081e-15
  11    9.9928035555823e-15
  12    4.1158321297168e-14
  13    2.6058209477196e-14
 Sym= A
 Ene=               1
 Spin= Alpha
 Occup=    1.00000
   1    -8.3634236451256e-13
   2    2.0043186230581e-12
   3    2.6461481836231e-12
   4    3.8044341221279e-14
   5      0.51677794293709
   6    1.7744669790311e-12
   7    2.9457198571436e-14
   8      0.23365583464216
   9    1.3194334398355e-12
  10      0.26763986173807
  11      0.14942017009236
  12     -0.26763986173841
  13     -0.14942017009318
 Sym= A
 Ene=               2
 Spin= Alpha
 Occup=    1.00000
   1    -0.046746894454924
   2      0.10718796483362
   3      0.27958784210164
   4    1.128881112442e-13
   5    -1.7572572274467e-12
   6       0.5646370384186
   7    8.8153244075901e-14
   8    -7.9488195977606e-13
   9      0.38263948372499
  10     -0.16874852056281
  11     -0.10148757034032
  12     -0.16874852056099
  13      -0.1014875703393
 Sym= A
 Ene=               3
 Spin= Alpha
 Occup=    1.00000
   1     -0.22313997179263
   2        0.493969895903
   3      0.51179605641207
   4    2.045650498375e-14
   5    -1.7140524829695e-12
   6    -0.043965297661868
   7    1.5988456551664e-14
   8    -7.7309928331293e-13
   9    0.0052604449120011
  10      0.12125092196166
  11    -0.020085354525085
  12      0.12125092196343
  13    -0.020085354524088
 Sym= A
 Ene=               4
 Spin= Alpha
 Occup=    1.00000
   1      0.99503927641702
   2     0.027925978380238
   3    -0.013439482440697
   4    -1.6616754565865e-16
   5    -3.2491490439286e-14
   6    -0.0030134967619924
   7    -1.3009092954321e-16
   8    -1.4659571456593e-14
   9    0.0021825679382866
  10    0.00037546777237069
  11    0.0032251725865659
  12    0.00037546777240433
  13    0.0032251725865848
 Sym= A
 Ene=               5
 Spin= Alpha
 Occup=    0.00000
   1    -1.9257944298413e-14
   2    4.1687957722782e-14
   3    2.2266638590203e-13
   4    2.9858131103856e-15
   5      0.44810029916975
   6    -8.1843632811523e-14
   7    -3.176855884927e-15
   8      0.72121480950703
   9    -7.4705737638439e-14
  10     -0.11404267551415
  11      -1.2529182692786
  12      0.11404267551411
  13       1.2529182692782
 Sym= A
 Ene=               6
 Spin= Alpha
 Occup=    0.00000
   1    -5.0753255843604e-13
   2    -1.8818676939806e-12
   3    1.0509883052851e-11
   4     -0.95835311898027
   5    1.4460653824243e-13
   6    -7.5598890847308e-12
   7       1.0397118767166
   8    -1.4372332342707e-12
   9    8.7828689346421e-13
  10    -3.2865930567083e-12
  11    -4.2591837553062e-12
  12    -6.0276971373066e-12
  13    -3.1370094463504e-12
 Sym= A
 Ene=               7
 Spin= Alpha
 Occup=    0.00000
   1    -0.044506690744816
   2    -0.066443855595928
   3      0.84309755164236
   4    5.6822064690247e-12
   5     -0.35852608889014
   6     -0.32506804800582
   7    -6.164343359993e-12
   8    -0.018321457712596
   9     -0.15244776993736
  10      0.59643088789302
  11      -1.2684399628871
  12     -0.86168970806457
  13      0.19514997385933
 Sym= A
 Ene=               8
 Spin= Alpha
 Occup=    0.00000
   1     0.013430610997074
   2       0.4649502949028
   3      -1.1411238554996
   4    -4.3031058470524e-12
   5      0.42278498131304
   6      0.44378181165844
   7    4.6684057214962e-12
   8      -1.2094877155397
   9     0.042510054044079
  10      0.89099984588862
  11      0.46274163961943
  12     -0.21887686151998
  13      0.18296987906432
 Sym= A
 Ene=               9
 Spin= Alpha
 Occup=    0.00000
   1     0.031464396027567
   2      0.25315371169618
   3       -1.057583262235
   4    -4.3399539915664e-12
   5     -0.80848545425961
   6      0.26542300237858
   7    4.7086907765654e-12
   8       1.2042439431497
   9      0.21710531574219
  10      0.35453746393177
  11      -0.3588721265422
  12    -0.070977223408595
  13       1.4784286413763
 Sym= A
 Ene=              10
 Spin= Alpha
 Occup=    0.00000
   1     0.095001330631244
   2     -0.45763443811481
   3     -0.16043409421843
   4    -1.0942852500961e-13
   5     0.012794688541771
   6     -0.39441541138265
   7    1.186548093579e-13
   8    -0.059460995739992
   9       1.1200292367577
  10       0.8523256719546
  11    -0.096095739348025
  12      0.76620365478687
  13    -0.077711139333359
 Sym= A
 Ene=              11
 Spin= Alpha
 Occup=    0.00000
   1    -0.012224019380329
   2    -0.044391392943032
   3      0.62271171810163
   4    -3.3469941164878e-12
   5     -0.14817915655291
   6      0.59874126265995
   7    3.6310640899222e-12
   8      0.41883394632865
   9     -0.65514583967399
  10       0.3652421518463
  11     -0.92397127373299
  12      0.74258005912342
  13     -0.81995847084104
 Sym= A
 Ene=              12
 Spin= Alpha
 Occup=    0.00000
   1     0.075760068580919
   2      -1.6045410422102
   3       2.3420716759423
   4    -9.1914459209332e-13
   5     0.010250503073183
   6      0.40860174710053
   7    9.9716009272499e-13
   8     -0.15434738914992
   9     -0.83039909588201
  10     -0.16304891696745
  11     -0.50146560768998
  12     -0.47729025557566
  13     -0.36138674233109
