[Molden Format]
made by pyscf v[2.11.0]
[Atoms] (AU)
C   1   6     5.47363329377744     0.02754275826554     0.00000000000000
C   2   6    -6.85126631529887    -2.34691701451171     0.00000000000000
C   3   6     2.71673452736297     0.01731745020551     0.00000000000000
C   4   6    -5.47213663068679    -0.02817959596951     0.00000000000000
C   5   6     1.37814135784893    -2.36189687350114     0.00000000000000
C   6   6    -1.37525763578285    -2.38411438354765     0.00000000000000
C   7   6    -2.71545518277664    -0.01865915575396     0.00000000000000
C   8   6     6.85342060308087     2.34830596321327     0.00000000000000
C   9   6     1.37667115092402     2.38258748483900     0.00000000000000
C   10   6    -9.62328855988824    -2.32065927001088     0.00000000000000
C   11   6    -1.37594360636606     2.36039076177986     0.00000000000000
C   12   6    -9.55752231130112     2.34616490351413     0.00000000000000
C   13   6    -5.48380757923210    -4.68010705845458     0.00000000000000
C   14   6     6.80532140403232    -2.31712359243182     0.00000000000000
C   15   6     2.81006243147686    -4.66903893254300     0.00000000000000
C   16   6     5.48319341824162     4.68218953664385     0.00000000000000
C   17   6     9.62360036469879     2.32528154011156     0.00000000000000
C   18   6    -2.82135732452339    -4.69617350996563     0.00000000000000
C   19   6     9.55480866458625    -2.34735165152036     0.00000000000000
C   20   6     2.82147826699536     4.69678578122999     0.00000000000000
C   21   6    -6.80623036229823     2.31679855953839     0.00000000000000
C   22   6     5.46723090166742    -4.64874894314355     0.00000000000000
C   23   6    -2.80738468955835     4.66746857013349     0.00000000000000
C   24   6    -5.46742365373212     4.64630174781224     0.00000000000000
O   25   8   -10.83251485836679     0.04933885938627     0.00000000000000
O   26   8    10.83595415991350    -0.04834108399250     0.00000000000000
O   27   8   -10.89906912274785     4.27076592370804     0.00000000000000
O   28   8   -11.06784623211113    -4.15258812105612     0.00000000000000
O   29   8    10.89761403363194    -4.27144244566064     0.00000000000000
O   30   8    11.06086369408087     4.15400163619729     0.00000000000000
H   31   1     1.82731413984905    -6.50052180822284     0.00000000000000
H   32   1    -6.54965279773541    -6.47293369653032     0.00000000000000
H   33   1    -1.83244096682500    -6.52843306308267     0.00000000000000
H   34   1     1.83127122635389     6.52801354388302     0.00000000000000
H   35   1     6.54794259559268     6.47548860625073     0.00000000000000
H   36   1     6.57841253962517    -6.42064497466360     0.00000000000000
H   37   1    -1.82707225490511     6.50017220888980     0.00000000000000
H   38   1    -6.57799491015164     6.41895933896049     0.00000000000000
[GTO]
1 0
 s    6 1.00
             3047.5249  0.0018347001629433
             457.36951    0.01403730124668
             103.94869   0.068842606114048
             29.210155    0.23218442062076
              9.286663    0.46794134155879
              3.163927    0.36231203217765
 s    3 1.00
             7.8682724   -0.11933240861517
             1.8812885   -0.16085421161283
             0.5442493     1.1434564825515
 s    1 1.00
             0.1687144                   1
 p    3 1.00
             7.8682724   0.068999095584993
             1.8812885    0.31642397975315
             0.5442493    0.74430825237435
 p    1 1.00
             0.1687144                   1

2 0
 s    6 1.00
             3047.5249  0.0018347001629433
             457.36951    0.01403730124668
             103.94869   0.068842606114048
             29.210155    0.23218442062076
              9.286663    0.46794134155879
              3.163927    0.36231203217765
 s    3 1.00
             7.8682724   -0.11933240861517
             1.8812885   -0.16085421161283
             0.5442493     1.1434564825515
 s    1 1.00
             0.1687144                   1
 p    3 1.00
             7.8682724   0.068999095584993
             1.8812885    0.31642397975315
             0.5442493    0.74430825237435
 p    1 1.00
             0.1687144                   1

3 0
 s    6 1.00
             3047.5249  0.0018347001629433
             457.36951    0.01403730124668
             103.94869   0.068842606114048
             29.210155    0.23218442062076
              9.286663    0.46794134155879
              3.163927    0.36231203217765
 s    3 1.00
             7.8682724   -0.11933240861517
             1.8812885   -0.16085421161283
             0.5442493     1.1434564825515
 s    1 1.00
             0.1687144                   1
 p    3 1.00
             7.8682724   0.068999095584993
             1.8812885    0.31642397975315
             0.5442493    0.74430825237435
 p    1 1.00
             0.1687144                   1

4 0
 s    6 1.00
             3047.5249  0.0018347001629433
             457.36951    0.01403730124668
             103.94869   0.068842606114048
             29.210155    0.23218442062076
              9.286663    0.46794134155879
              3.163927    0.36231203217765
 s    3 1.00
             7.8682724   -0.11933240861517
             1.8812885   -0.16085421161283
             0.5442493     1.1434564825515
 s    1 1.00
             0.1687144                   1
 p    3 1.00
             7.8682724   0.068999095584993
             1.8812885    0.31642397975315
             0.5442493    0.74430825237435
 p    1 1.00
             0.1687144                   1

5 0
 s    6 1.00
             3047.5249  0.0018347001629433
             457.36951    0.01403730124668
             103.94869   0.068842606114048
             29.210155    0.23218442062076
              9.286663    0.46794134155879
              3.163927    0.36231203217765
 s    3 1.00
             7.8682724   -0.11933240861517
             1.8812885   -0.16085421161283
             0.5442493     1.1434564825515
 s    1 1.00
             0.1687144                   1
 p    3 1.00
             7.8682724   0.068999095584993
             1.8812885    0.31642397975315
             0.5442493    0.74430825237435
 p    1 1.00
             0.1687144                   1

6 0
 s    6 1.00
             3047.5249  0.0018347001629433
             457.36951    0.01403730124668
             103.94869   0.068842606114048
             29.210155    0.23218442062076
              9.286663    0.46794134155879
              3.163927    0.36231203217765
 s    3 1.00
             7.8682724   -0.11933240861517
             1.8812885   -0.16085421161283
             0.5442493     1.1434564825515
 s    1 1.00
             0.1687144                   1
 p    3 1.00
             7.8682724   0.068999095584993
             1.8812885    0.31642397975315
             0.5442493    0.74430825237435
 p    1 1.00
             0.1687144                   1

7 0
 s    6 1.00
             3047.5249  0.0018347001629433
             457.36951    0.01403730124668
             103.94869   0.068842606114048
             29.210155    0.23218442062076
              9.286663    0.46794134155879
              3.163927    0.36231203217765
 s    3 1.00
             7.8682724   -0.11933240861517
             1.8812885   -0.16085421161283
             0.5442493     1.1434564825515
 s    1 1.00
             0.1687144                   1
 p    3 1.00
             7.8682724   0.068999095584993
             1.8812885    0.31642397975315
             0.5442493    0.74430825237435
 p    1 1.00
             0.1687144                   1

8 0
 s    6 1.00
             3047.5249  0.0018347001629433
             457.36951    0.01403730124668
             103.94869   0.068842606114048
             29.210155    0.23218442062076
              9.286663    0.46794134155879
              3.163927    0.36231203217765
 s    3 1.00
             7.8682724   -0.11933240861517
             1.8812885   -0.16085421161283
             0.5442493     1.1434564825515
 s    1 1.00
             0.1687144                   1
 p    3 1.00
             7.8682724   0.068999095584993
             1.8812885    0.31642397975315
             0.5442493    0.74430825237435
 p    1 1.00
             0.1687144                   1

9 0
 s    6 1.00
             3047.5249  0.0018347001629433
             457.36951    0.01403730124668
             103.94869   0.068842606114048
             29.210155    0.23218442062076
              9.286663    0.46794134155879
              3.163927    0.36231203217765
 s    3 1.00
             7.8682724   -0.11933240861517
             1.8812885   -0.16085421161283
             0.5442493     1.1434564825515
 s    1 1.00
             0.1687144                   1
 p    3 1.00
             7.8682724   0.068999095584993
             1.8812885    0.31642397975315
             0.5442493    0.74430825237435
 p    1 1.00
             0.1687144                   1

10 0
 s    6 1.00
             3047.5249  0.0018347001629433
             457.36951    0.01403730124668
             103.94869   0.068842606114048
             29.210155    0.23218442062076
              9.286663    0.46794134155879
              3.163927    0.36231203217765
 s    3 1.00
             7.8682724   -0.11933240861517
             1.8812885   -0.16085421161283
             0.5442493     1.1434564825515
 s    1 1.00
             0.1687144                   1
 p    3 1.00
             7.8682724   0.068999095584993
             1.8812885    0.31642397975315
             0.5442493    0.74430825237435
 p    1 1.00
             0.1687144                   1

11 0
 s    6 1.00
             3047.5249  0.0018347001629433
             457.36951    0.01403730124668
             103.94869   0.068842606114048
             29.210155    0.23218442062076
              9.286663    0.46794134155879
              3.163927    0.36231203217765
 s    3 1.00
             7.8682724   -0.11933240861517
             1.8812885   -0.16085421161283
             0.5442493     1.1434564825515
 s    1 1.00
             0.1687144                   1
 p    3 1.00
             7.8682724   0.068999095584993
             1.8812885    0.31642397975315
             0.5442493    0.74430825237435
 p    1 1.00
             0.1687144                   1

12 0
 s    6 1.00
             3047.5249  0.0018347001629433
             457.36951    0.01403730124668
             103.94869   0.068842606114048
             29.210155    0.23218442062076
              9.286663    0.46794134155879
              3.163927    0.36231203217765
 s    3 1.00
             7.8682724   -0.11933240861517
             1.8812885   -0.16085421161283
             0.5442493     1.1434564825515
 s    1 1.00
             0.1687144                   1
 p    3 1.00
             7.8682724   0.068999095584993
             1.8812885    0.31642397975315
             0.5442493    0.74430825237435
 p    1 1.00
             0.1687144                   1

13 0
 s    6 1.00
             3047.5249  0.0018347001629433
             457.36951    0.01403730124668
             103.94869   0.068842606114048
             29.210155    0.23218442062076
              9.286663    0.46794134155879
              3.163927    0.36231203217765
 s    3 1.00
             7.8682724   -0.11933240861517
             1.8812885   -0.16085421161283
             0.5442493     1.1434564825515
 s    1 1.00
             0.1687144                   1
 p    3 1.00
             7.8682724   0.068999095584993
             1.8812885    0.31642397975315
             0.5442493    0.74430825237435
 p    1 1.00
             0.1687144                   1

14 0
 s    6 1.00
             3047.5249  0.0018347001629433
             457.36951    0.01403730124668
             103.94869   0.068842606114048
             29.210155    0.23218442062076
              9.286663    0.46794134155879
              3.163927    0.36231203217765
 s    3 1.00
             7.8682724   -0.11933240861517
             1.8812885   -0.16085421161283
             0.5442493     1.1434564825515
 s    1 1.00
             0.1687144                   1
 p    3 1.00
             7.8682724   0.068999095584993
             1.8812885    0.31642397975315
             0.5442493    0.74430825237435
 p    1 1.00
             0.1687144                   1

15 0
 s    6 1.00
             3047.5249  0.0018347001629433
             457.36951    0.01403730124668
             103.94869   0.068842606114048
             29.210155    0.23218442062076
              9.286663    0.46794134155879
              3.163927    0.36231203217765
 s    3 1.00
             7.8682724   -0.11933240861517
             1.8812885   -0.16085421161283
             0.5442493     1.1434564825515
 s    1 1.00
             0.1687144                   1
 p    3 1.00
             7.8682724   0.068999095584993
             1.8812885    0.31642397975315
             0.5442493    0.74430825237435
 p    1 1.00
             0.1687144                   1

16 0
 s    6 1.00
             3047.5249  0.0018347001629433
             457.36951    0.01403730124668
             103.94869   0.068842606114048
             29.210155    0.23218442062076
              9.286663    0.46794134155879
              3.163927    0.36231203217765
 s    3 1.00
             7.8682724   -0.11933240861517
             1.8812885   -0.16085421161283
             0.5442493     1.1434564825515
 s    1 1.00
             0.1687144                   1
 p    3 1.00
             7.8682724   0.068999095584993
             1.8812885    0.31642397975315
             0.5442493    0.74430825237435
 p    1 1.00
             0.1687144                   1

17 0
 s    6 1.00
             3047.5249  0.0018347001629433
             457.36951    0.01403730124668
             103.94869   0.068842606114048
             29.210155    0.23218442062076
              9.286663    0.46794134155879
              3.163927    0.36231203217765
 s    3 1.00
             7.8682724   -0.11933240861517
             1.8812885   -0.16085421161283
             0.5442493     1.1434564825515
 s    1 1.00
             0.1687144                   1
 p    3 1.00
             7.8682724   0.068999095584993
             1.8812885    0.31642397975315
             0.5442493    0.74430825237435
 p    1 1.00
             0.1687144                   1

18 0
 s    6 1.00
             3047.5249  0.0018347001629433
             457.36951    0.01403730124668
             103.94869   0.068842606114048
             29.210155    0.23218442062076
              9.286663    0.46794134155879
              3.163927    0.36231203217765
 s    3 1.00
             7.8682724   -0.11933240861517
             1.8812885   -0.16085421161283
             0.5442493     1.1434564825515
 s    1 1.00
             0.1687144                   1
 p    3 1.00
             7.8682724   0.068999095584993
             1.8812885    0.31642397975315
             0.5442493    0.74430825237435
 p    1 1.00
             0.1687144                   1

19 0
 s    6 1.00
             3047.5249  0.0018347001629433
             457.36951    0.01403730124668
             103.94869   0.068842606114048
             29.210155    0.23218442062076
              9.286663    0.46794134155879
              3.163927    0.36231203217765
 s    3 1.00
             7.8682724   -0.11933240861517
             1.8812885   -0.16085421161283
             0.5442493     1.1434564825515
 s    1 1.00
             0.1687144                   1
 p    3 1.00
             7.8682724   0.068999095584993
             1.8812885    0.31642397975315
             0.5442493    0.74430825237435
 p    1 1.00
             0.1687144                   1

20 0
 s    6 1.00
             3047.5249  0.0018347001629433
             457.36951    0.01403730124668
             103.94869   0.068842606114048
             29.210155    0.23218442062076
              9.286663    0.46794134155879
              3.163927    0.36231203217765
 s    3 1.00
             7.8682724   -0.11933240861517
             1.8812885   -0.16085421161283
             0.5442493     1.1434564825515
 s    1 1.00
             0.1687144                   1
 p    3 1.00
             7.8682724   0.068999095584993
             1.8812885    0.31642397975315
             0.5442493    0.74430825237435
 p    1 1.00
             0.1687144                   1

21 0
 s    6 1.00
             3047.5249  0.0018347001629433
             457.36951    0.01403730124668
             103.94869   0.068842606114048
             29.210155    0.23218442062076
              9.286663    0.46794134155879
              3.163927    0.36231203217765
 s    3 1.00
             7.8682724   -0.11933240861517
             1.8812885   -0.16085421161283
             0.5442493     1.1434564825515
 s    1 1.00
             0.1687144                   1
 p    3 1.00
             7.8682724   0.068999095584993
             1.8812885    0.31642397975315
             0.5442493    0.74430825237435
 p    1 1.00
             0.1687144                   1

22 0
 s    6 1.00
             3047.5249  0.0018347001629433
             457.36951    0.01403730124668
             103.94869   0.068842606114048
             29.210155    0.23218442062076
              9.286663    0.46794134155879
              3.163927    0.36231203217765
 s    3 1.00
             7.8682724   -0.11933240861517
             1.8812885   -0.16085421161283
             0.5442493     1.1434564825515
 s    1 1.00
             0.1687144                   1
 p    3 1.00
             7.8682724   0.068999095584993
             1.8812885    0.31642397975315
             0.5442493    0.74430825237435
 p    1 1.00
             0.1687144                   1

23 0
 s    6 1.00
             3047.5249  0.0018347001629433
             457.36951    0.01403730124668
             103.94869   0.068842606114048
             29.210155    0.23218442062076
              9.286663    0.46794134155879
              3.163927    0.36231203217765
 s    3 1.00
             7.8682724   -0.11933240861517
             1.8812885   -0.16085421161283
             0.5442493     1.1434564825515
 s    1 1.00
             0.1687144                   1
 p    3 1.00
             7.8682724   0.068999095584993
             1.8812885    0.31642397975315
             0.5442493    0.74430825237435
 p    1 1.00
             0.1687144                   1

24 0
 s    6 1.00
             3047.5249  0.0018347001629433
             457.36951    0.01403730124668
             103.94869   0.068842606114048
             29.210155    0.23218442062076
              9.286663    0.46794134155879
              3.163927    0.36231203217765
 s    3 1.00
             7.8682724   -0.11933240861517
             1.8812885   -0.16085421161283
             0.5442493     1.1434564825515
 s    1 1.00
             0.1687144                   1
 p    3 1.00
             7.8682724   0.068999095584993
             1.8812885    0.31642397975315
             0.5442493    0.74430825237435
 p    1 1.00
             0.1687144                   1

25 0
 s    6 1.00
             5484.6717   0.001831099805527
             825.23495   0.013950098518422
             188.04696    0.06844509273075
               52.9645    0.23271427528445
              16.89757    0.47019295006289
             5.7996353    0.35852086192309
 s    3 1.00
             15.539616   -0.11077750382508
             3.5999336   -0.14802630511126
             1.0137618     1.1307670390447
 s    1 1.00
             0.2700058                   1
 p    3 1.00
             15.539616   0.070874299543311
             3.5999336    0.33975279781076
             1.0137618    0.72715859531445
 p    1 1.00
             0.2700058                   1

26 0
 s    6 1.00
             5484.6717   0.001831099805527
             825.23495   0.013950098518422
             188.04696    0.06844509273075
               52.9645    0.23271427528445
              16.89757    0.47019295006289
             5.7996353    0.35852086192309
 s    3 1.00
             15.539616   -0.11077750382508
             3.5999336   -0.14802630511126
             1.0137618     1.1307670390447
 s    1 1.00
             0.2700058                   1
 p    3 1.00
             15.539616   0.070874299543311
             3.5999336    0.33975279781076
             1.0137618    0.72715859531445
 p    1 1.00
             0.2700058                   1

27 0
 s    6 1.00
             5484.6717   0.001831099805527
             825.23495   0.013950098518422
             188.04696    0.06844509273075
               52.9645    0.23271427528445
              16.89757    0.47019295006289
             5.7996353    0.35852086192309
 s    3 1.00
             15.539616   -0.11077750382508
             3.5999336   -0.14802630511126
             1.0137618     1.1307670390447
 s    1 1.00
             0.2700058                   1
 p    3 1.00
             15.539616   0.070874299543311
             3.5999336    0.33975279781076
             1.0137618    0.72715859531445
 p    1 1.00
             0.2700058                   1

28 0
 s    6 1.00
             5484.6717   0.001831099805527
             825.23495   0.013950098518422
             188.04696    0.06844509273075
               52.9645    0.23271427528445
              16.89757    0.47019295006289
             5.7996353    0.35852086192309
 s    3 1.00
             15.539616   -0.11077750382508
             3.5999336   -0.14802630511126
             1.0137618     1.1307670390447
 s    1 1.00
             0.2700058                   1
 p    3 1.00
             15.539616   0.070874299543311
             3.5999336    0.33975279781076
             1.0137618    0.72715859531445
 p    1 1.00
             0.2700058                   1

29 0
 s    6 1.00
             5484.6717   0.001831099805527
             825.23495   0.013950098518422
             188.04696    0.06844509273075
               52.9645    0.23271427528445
              16.89757    0.47019295006289
             5.7996353    0.35852086192309
 s    3 1.00
             15.539616   -0.11077750382508
             3.5999336   -0.14802630511126
             1.0137618     1.1307670390447
 s    1 1.00
             0.2700058                   1
 p    3 1.00
             15.539616   0.070874299543311
             3.5999336    0.33975279781076
             1.0137618    0.72715859531445
 p    1 1.00
             0.2700058                   1

30 0
 s    6 1.00
             5484.6717   0.001831099805527
             825.23495   0.013950098518422
             188.04696    0.06844509273075
               52.9645    0.23271427528445
              16.89757    0.47019295006289
             5.7996353    0.35852086192309
 s    3 1.00
             15.539616   -0.11077750382508
             3.5999336   -0.14802630511126
             1.0137618     1.1307670390447
 s    1 1.00
             0.2700058                   1
 p    3 1.00
             15.539616   0.070874299543311
             3.5999336    0.33975279781076
             1.0137618    0.72715859531445
 p    1 1.00
             0.2700058                   1

31 0
 s    3 1.00
             18.731137    0.03349459952309
             2.8253937    0.23472694665786
             0.6401217    0.81375731841339
 s    1 1.00
             0.1612778                   1

32 0
 s    3 1.00
             18.731137    0.03349459952309
             2.8253937    0.23472694665786
             0.6401217    0.81375731841339
 s    1 1.00
             0.1612778                   1

33 0
 s    3 1.00
             18.731137    0.03349459952309
             2.8253937    0.23472694665786
             0.6401217    0.81375731841339
 s    1 1.00
             0.1612778                   1

34 0
 s    3 1.00
             18.731137    0.03349459952309
             2.8253937    0.23472694665786
             0.6401217    0.81375731841339
 s    1 1.00
             0.1612778                   1

35 0
 s    3 1.00
             18.731137    0.03349459952309
             2.8253937    0.23472694665786
             0.6401217    0.81375731841339
 s    1 1.00
             0.1612778                   1

36 0
 s    3 1.00
             18.731137    0.03349459952309
             2.8253937    0.23472694665786
             0.6401217    0.81375731841339
 s    1 1.00
             0.1612778                   1

37 0
 s    3 1.00
             18.731137    0.03349459952309
             2.8253937    0.23472694665786
             0.6401217    0.81375731841339
 s    1 1.00
             0.1612778                   1

38 0
 s    3 1.00
             18.731137    0.03349459952309
             2.8253937    0.23472694665786
             0.6401217    0.81375731841339
 s    1 1.00
             0.1612778                   1

[5d]
[7f]
[9g]

[MO]
 Sym= A
 Ene=               0
 Spin= Alpha
 Occup=    1.00000
   1    -0.00095903885233087
   2    0.0015561567572112
   3    0.0094730238895803
   4    0.0039794698666171
   5    -0.038692524736727
   6    4.5144706560622e-11
   7     0.008059174420428
   8     0.065324267669374
   9    1.8930456013472e-11
  10    -0.016812903209845
  11     0.028045333369999
  12      0.16437975511568
  13    -0.077318483426217
  14    0.0017368217118965
  15    1.6166725938727e-11
  16     -0.17070208633168
  17    -0.070485619145755
  18    2.2135912831342e-11
  19    0.00082083318453285
  20    -0.0016925676910929
  21    -0.00097304092671913
  22    -0.0034878256531117
  23    0.0034053306078877
  24    1.0988346013897e-10
  25    -0.0016075926035993
  26    -0.049913825975416
  27    6.3937592654958e-11
  28    -0.0010663614774921
  29    0.0016950609865153
  30     0.011264145056779
  31    -0.0045484960565183
  32     0.047222411876004
  33    7.2182563017258e-11
  34    -0.008945778271632
  35    -0.079105255823334
  36    3.2774308130101e-11
  37    0.0044811036004531
  38    -0.0095091491099713
  39    -0.019680674476173
  40    -0.0023834200795239
  41    -0.0021284456473892
  42    1.0252740540003e-10
  43    -0.021709139324863
  44     -0.03440379942837
  45    5.0949005127975e-11
  46    -0.0045995486291461
  47    0.0097697752359202
  48      0.02376467456845
  49    -0.0065717325080867
  50    0.0054215181135377
  51    1.396702012279e-10
  52    -0.025198784561789
  53     0.038419422836056
  54    7.422384253192e-11
  55    0.00088676081777514
  56    -0.0018048831385704
  57    -0.0012142214332637
  58    0.0040696828154342
  59    -0.0048883661464834
  60    1.355132738872e-10
  61    0.0019999027947869
  62     0.057539705140983
  63    8.1504655374325e-11
  64    -0.013732376433713
  65     0.022975516546495
  66      0.13388250221243
  67     0.063060395654779
  68    -0.0018399259473596
  69    -3.0473928140257e-11
  70      0.13932660026932
  71     0.058081894290546
  72    -5.2613285722579e-12
  73    -0.0041734893526653
  74    0.0089798813286869
  75     0.017670747237653
  76    0.0032877238970048
  77    -0.0046856211031913
  78    1.2463636982816e-10
  79     0.021187306653939
  80    -0.035620898208141
  81    6.6922198116148e-11
  82    0.00081691166460106
  83    0.0095249745153549
  84    -0.086212889838069
  85     0.021487170420109
  86    -0.024309231507489
  87    -1.9205462668925e-10
  88     -0.15266312128136
  89      0.09709033009462
  90    -1.0815347691845e-10
  91    0.0049450709373154
  92    -0.010359056075692
  93    -0.025900689946953
  94    0.0057884543029378
  95    0.0023493178972115
  96    1.167726695179e-10
  97     0.025654616828916
  98     0.037071656855826
  99    5.6951878788928e-11
 100    0.00082533537721457
 101    -0.014154646424103
 102     0.087566031738863
 103    -0.026272340424674
 104    -0.015899069846615
 105    -1.9707215197438e-10
 106      0.18144900580131
 107      0.10484517936464
 108    -1.0763706356256e-10
 109    -0.0025239672565854
 110    0.0034517374764079
 111     0.035082099959454
 112    -0.00081225327576338
 113    -0.019466258761364
 114    6.5238490684108e-11
 115     0.068194920737789
 116    -0.028909780331718
 117    3.7254486157184e-11
 118     0.015486400359122
 119    -0.025155821044278
 120     -0.17157228665301
 121    -0.076208092673994
 122    0.0020988768866686
 123    2.2478537113032e-11
 124     -0.15506751850393
 125      0.05678371624096
 126    1.3173777407257e-11
 127    -0.00087154092675886
 128    0.00061907882080236
 129     0.041231510178297
 130    -0.005732762012658
 131    -0.0037666629002174
 132    3.1868852421233e-11
 133     0.032480427592409
 134    -0.018206669265391
 135    1.2656861832445e-11
 136    -0.002177971522235
 137    0.0030027733131055
 138     0.030571423862729
 139    -0.00040612638410681
 140     0.015901640554382
 141    3.1440370704476e-11
 142    -0.057345479509316
 143     0.024286811313796
 144    1.5490565245061e-11
 145    0.00075456483942538
 146    0.0075587555762629
 147    -0.071579120356626
 148    -0.017952666939165
 149     0.020537705105918
 150    -2.1624257559994e-10
 151      0.12385555155655
 152    -0.078201902522607
 153    -1.2055482938376e-10
 154    -0.00011012013226582
 155    0.0016454092434929
 156    -0.041710816210193
 157    -0.0072751800315367
 158    0.0048276917210846
 159    9.5474156632799e-11
 160     0.035051028884413
 161     0.018490924141411
 162    5.5909211085437e-11
 163    0.00083692374633072
 164    -0.012109971236087
 165     0.073019596421644
 166     0.021558881697834
 167     0.012588808451115
 168    -9.9551011623689e-12
 169     -0.14980077813662
 170    -0.085950715669708
 171    -4.7820191527278e-12
 172    0.00013637881811555
 173    0.00087731923492371
 174    -0.034523450409427
 175    0.0071635499805743
 176    -0.0040523174584594
 177    7.301256007977e-11
 178    -0.030759583987625
 179    -0.017116571841546
 180    4.4401749636462e-11
 181     0.018813890800006
 182    -0.030622618416102
 183     -0.20673963743432
 184      0.09246676407092
 185    -0.0026982878467382
 186    -1.3975246021073e-11
 187      0.18769841706137
 188    -0.068912728098186
 189    2.856818696406e-12
 190     0.003855420213762