[Molden Format]
made by pyscf v[2.11.0]
[Atoms] (AU)
C   1   6     5.47363329377744     0.02754275826554     0.00000000000000
C   2   6    -6.85126631529887    -2.34691701451171     0.00000000000000
C   3   6     2.71673452736297     0.01731745020551     0.00000000000000
C   4   6    -5.47213663068679    -0.02817959596951     0.00000000000000
C   5   6     1.37814135784893    -2.36189687350114     0.00000000000000
C   6   6    -1.37525763578285    -2.38411438354765     0.00000000000000
C   7   6    -2.71545518277664    -0.01865915575396     0.00000000000000
C   8   6     6.85342060308087     2.34830596321327     0.00000000000000
C   9   6     1.37667115092402     2.38258748483900     0.00000000000000
C   10   6    -9.62328855988824    -2.32065927001088     0.00000000000000
C   11   6    -1.37594360636606     2.36039076177986     0.00000000000000
C   12   6    -9.55752231130112     2.34616490351413     0.00000000000000
C   13   6    -5.48380757923210    -4.68010705845458     0.00000000000000
C   14   6     6.80532140403232    -2.31712359243182     0.00000000000000
C   15   6     2.81006243147686    -4.66903893254300     0.00000000000000
C   16   6     5.48319341824162     4.68218953664385     0.00000000000000
C   17   6     9.62360036469879     2.32528154011156     0.00000000000000
C   18   6    -2.82135732452339    -4.69617350996563     0.00000000000000
C   19   6     9.55480866458625    -2.34735165152036     0.00000000000000
C   20   6     2.82147826699536     4.69678578122999     0.00000000000000
C   21   6    -6.80623036229823     2.31679855953839     0.00000000000000
C   22   6     5.46723090166742    -4.64874894314355     0.00000000000000
C   23   6    -2.80738468955835     4.66746857013349     0.00000000000000
C   24   6    -5.46742365373212     4.64630174781224     0.00000000000000
O   25   8   -10.83251485836679     0.04933885938627     0.00000000000000
O   26   8    10.83595415991350    -0.04834108399250     0.00000000000000
O   27   8   -10.89906912274785     4.27076592370804     0.00000000000000
O   28   8   -11.06784623211113    -4.15258812105612     0.00000000000000
O   29   8    10.89761403363194    -4.27144244566064     0.00000000000000
O   30   8    11.06086369408087     4.15400163619729     0.00000000000000
H   31   1     1.82731413984905    -6.50052180822284     0.00000000000000
H   32   1    -6.54965279773541    -6.47293369653032     0.00000000000000
H   33   1    -1.83244096682500    -6.52843306308267     0.00000000000000
H   34   1     1.83127122635389     6.52801354388302     0.00000000000000
H   35   1     6.54794259559268     6.47548860625073     0.00000000000000
H   36   1     6.57841253962517    -6.42064497466360     0.00000000000000
H   37   1    -1.82707225490511     6.50017220888980     0.00000000000000
H   38   1    -6.57799491015164     6.41895933896049     0.00000000000000
[GTO]
1 0
 s    6 1.00
             3047.5249  0.0018347001629433
             457.36951    0.01403730124668
             103.94869   0.068842606114048
             29.210155    0.23218442062076
              9.286663    0.46794134155879
              3.163927    0.36231203217765
 s    3 1.00
             7.8682724   -0.11933240861517
             1.8812885   -0.16085421161283
             0.5442493     1.1434564825515
 s    1 1.00
             0.1687144                   1
 p    3 1.00
             7.8682724   0.068999095584993
             1.8812885    0.31642397975315
             0.5442493    0.74430825237435
 p    1 1.00
             0.1687144                   1

2 0
 s    6 1.00
             3047.5249  0.0018347001629433
             457.36951    0.01403730124668
             103.94869   0.068842606114048
             29.210155    0.23218442062076
              9.286663    0.46794134155879
              3.163927    0.36231203217765
 s    3 1.00
             7.8682724   -0.11933240861517
             1.8812885   -0.16085421161283
             0.5442493     1.1434564825515
 s    1 1.00
             0.1687144                   1
 p    3 1.00
             7.8682724   0.068999095584993
             1.8812885    0.31642397975315
             0.5442493    0.74430825237435
 p    1 1.00
             0.1687144                   1

3 0
 s    6 1.00
             3047.5249  0.0018347001629433
             457.36951    0.01403730124668
             103.94869   0.068842606114048
             29.210155    0.23218442062076
              9.286663    0.46794134155879
              3.163927    0.36231203217765
 s    3 1.00
             7.8682724   -0.11933240861517
             1.8812885   -0.16085421161283
             0.5442493     1.1434564825515
 s    1 1.00
             0.1687144                   1
 p    3 1.00
             7.8682724   0.068999095584993
             1.8812885    0.31642397975315
             0.5442493    0.74430825237435
 p    1 1.00
             0.1687144                   1

4 0
 s    6 1.00
             3047.5249  0.0018347001629433
             457.36951    0.01403730124668
             103.94869   0.068842606114048
             29.210155    0.23218442062076
              9.286663    0.46794134155879
              3.163927    0.36231203217765
 s    3 1.00
             7.8682724   -0.11933240861517
             1.8812885   -0.16085421161283
             0.5442493     1.1434564825515
 s    1 1.00
             0.1687144                   1
 p    3 1.00
             7.8682724   0.068999095584993
             1.8812885    0.31642397975315
             0.5442493    0.74430825237435
 p    1 1.00
             0.1687144                   1

5 0
 s    6 1.00
             3047.5249  0.0018347001629433
             457.36951    0.01403730124668
             103.94869   0.068842606114048
             29.210155    0.23218442062076
              9.286663    0.46794134155879
              3.163927    0.36231203217765
 s    3 1.00
             7.8682724   -0.11933240861517
             1.8812885   -0.16085421161283
             0.5442493     1.1434564825515
 s    1 1.00
             0.1687144                   1
 p    3 1.00
             7.8682724   0.068999095584993
             1.8812885    0.31642397975315
             0.5442493    0.74430825237435
 p    1 1.00
             0.1687144                   1

6 0
 s    6 1.00
             3047.5249  0.0018347001629433
             457.36951    0.01403730124668
             103.94869   0.068842606114048
             29.210155    0.23218442062076
              9.286663    0.46794134155879
              3.163927    0.36231203217765
 s    3 1.00
             7.8682724   -0.11933240861517
             1.8812885   -0.16085421161283
             0.5442493     1.1434564825515
 s    1 1.00
             0.1687144                   1
 p    3 1.00
             7.8682724   0.068999095584993
             1.8812885    0.31642397975315
             0.5442493    0.74430825237435
 p    1 1.00
             0.1687144                   1

7 0
 s    6 1.00
             3047.5249  0.0018347001629433
             457.36951    0.01403730124668
             103.94869   0.068842606114048
             29.210155    0.23218442062076
              9.286663    0.46794134155879
              3.163927    0.36231203217765
 s    3 1.00
             7.8682724   -0.11933240861517
             1.8812885   -0.16085421161283
             0.5442493     1.1434564825515
 s    1 1.00
             0.1687144                   1
 p    3 1.00
             7.8682724   0.068999095584993
             1.8812885    0.31642397975315
             0.5442493    0.74430825237435
 p    1 1.00
             0.1687144                   1

8 0
 s    6 1.00
             3047.5249  0.0018347001629433
             457.36951    0.01403730124668
             103.94869   0.068842606114048
             29.210155    0.23218442062076
              9.286663    0.46794134155879
              3.163927    0.36231203217765
 s    3 1.00
             7.8682724   -0.11933240861517
             1.8812885   -0.16085421161283
             0.5442493     1.1434564825515
 s    1 1.00
             0.1687144                   1
 p    3 1.00
             7.8682724   0.068999095584993
             1.8812885    0.31642397975315
             0.5442493    0.74430825237435
 p    1 1.00
             0.1687144                   1

9 0
 s    6 1.00
             3047.5249  0.0018347001629433
             457.36951    0.01403730124668
             103.94869   0.068842606114048
             29.210155    0.23218442062076
              9.286663    0.46794134155879
              3.163927    0.36231203217765
 s    3 1.00
             7.8682724   -0.11933240861517
             1.8812885   -0.16085421161283
             0.5442493     1.1434564825515
 s    1 1.00
             0.1687144                   1
 p    3 1.00
             7.8682724   0.068999095584993
             1.8812885    0.31642397975315
             0.5442493    0.74430825237435
 p    1 1.00
             0.1687144                   1

10 0
 s    6 1.00
             3047.5249  0.0018347001629433
             457.36951    0.01403730124668
             103.94869   0.068842606114048
             29.210155    0.23218442062076
              9.286663    0.46794134155879
              3.163927    0.36231203217765
 s    3 1.00
             7.8682724   -0.11933240861517
             1.8812885   -0.16085421161283
             0.5442493     1.1434564825515
 s    1 1.00
             0.1687144                   1
 p    3 1.00
             7.8682724   0.068999095584993
             1.8812885    0.31642397975315
             0.5442493    0.74430825237435
 p    1 1.00
             0.1687144                   1

11 0
 s    6 1.00
             3047.5249  0.0018347001629433
             457.36951    0.01403730124668
             103.94869   0.068842606114048
             29.210155    0.23218442062076
              9.286663    0.46794134155879
              3.163927    0.36231203217765
 s    3 1.00
             7.8682724   -0.11933240861517
             1.8812885   -0.16085421161283
             0.5442493     1.1434564825515
 s    1 1.00
             0.1687144                   1
 p    3 1.00
             7.8682724   0.068999095584993
             1.8812885    0.31642397975315
             0.5442493    0.74430825237435
 p    1 1.00
             0.1687144                   1

12 0
 s    6 1.00
             3047.5249  0.0018347001629433
             457.36951    0.01403730124668
             103.94869   0.068842606114048
             29.210155    0.23218442062076
              9.286663    0.46794134155879
              3.163927    0.36231203217765
 s    3 1.00
             7.8682724   -0.11933240861517
             1.8812885   -0.16085421161283
             0.5442493     1.1434564825515
 s    1 1.00
             0.1687144                   1
 p    3 1.00
             7.8682724   0.068999095584993
             1.8812885    0.31642397975315
             0.5442493    0.74430825237435
 p    1 1.00
             0.1687144                   1

13 0
 s    6 1.00
             3047.5249  0.0018347001629433
             457.36951    0.01403730124668
             103.94869   0.068842606114048
             29.210155    0.23218442062076
              9.286663    0.46794134155879
              3.163927    0.36231203217765
 s    3 1.00
             7.8682724   -0.11933240861517
             1.8812885   -0.16085421161283
             0.5442493     1.1434564825515
 s    1 1.00
             0.1687144                   1
 p    3 1.00
             7.8682724   0.068999095584993
             1.8812885    0.31642397975315
             0.5442493    0.74430825237435
 p    1 1.00
             0.1687144                   1

14 0
 s    6 1.00
             3047.5249  0.0018347001629433
             457.36951    0.01403730124668
             103.94869   0.068842606114048
             29.210155    0.23218442062076
              9.286663    0.46794134155879
              3.163927    0.36231203217765
 s    3 1.00
             7.8682724   -0.11933240861517
             1.8812885   -0.16085421161283
             0.5442493     1.1434564825515
 s    1 1.00
             0.1687144                   1
 p    3 1.00
             7.8682724   0.068999095584993
             1.8812885    0.31642397975315
             0.5442493    0.74430825237435
 p    1 1.00
             0.1687144                   1

15 0
 s    6 1.00
             3047.5249  0.0018347001629433
             457.36951    0.01403730124668
             103.94869   0.068842606114048
             29.210155    0.23218442062076
              9.286663    0.46794134155879
              3.163927    0.36231203217765
 s    3 1.00
             7.8682724   -0.11933240861517
             1.8812885   -0.16085421161283
             0.5442493     1.1434564825515
 s    1 1.00
             0.1687144                   1
 p    3 1.00
             7.8682724   0.068999095584993
             1.8812885    0.31642397975315
             0.5442493    0.74430825237435
 p    1 1.00
             0.1687144                   1

16 0
 s    6 1.00
             3047.5249  0.0018347001629433
             457.36951    0.01403730124668
             103.94869   0.068842606114048
             29.210155    0.23218442062076
              9.286663    0.46794134155879
              3.163927    0.36231203217765
 s    3 1.00
             7.8682724   -0.11933240861517
             1.8812885   -0.16085421161283
             0.5442493     1.1434564825515
 s    1 1.00
             0.1687144                   1
 p    3 1.00
             7.8682724   0.068999095584993
             1.8812885    0.31642397975315
             0.5442493    0.74430825237435
 p    1 1.00
             0.1687144                   1

17 0
 s    6 1.00
             3047.5249  0.0018347001629433
             457.36951    0.01403730124668
             103.94869   0.068842606114048
             29.210155    0.23218442062076
              9.286663    0.46794134155879
              3.163927    0.36231203217765
 s    3 1.00
             7.8682724   -0.11933240861517
             1.8812885   -0.16085421161283
             0.5442493     1.1434564825515
 s    1 1.00
             0.1687144                   1
 p    3 1.00
             7.8682724   0.068999095584993
             1.8812885    0.31642397975315
             0.5442493    0.74430825237435
 p    1 1.00
             0.1687144                   1

18 0
 s    6 1.00
             3047.5249  0.0018347001629433
             457.36951    0.01403730124668
             103.94869   0.068842606114048
             29.210155    0.23218442062076
              9.286663    0.46794134155879
              3.163927    0.36231203217765
 s    3 1.00
             7.8682724   -0.11933240861517
             1.8812885   -0.16085421161283
             0.5442493     1.1434564825515
 s    1 1.00
             0.1687144                   1
 p    3 1.00
             7.8682724   0.068999095584993
             1.8812885    0.31642397975315
             0.5442493    0.74430825237435
 p    1 1.00
             0.1687144                   1

19 0
 s    6 1.00
             3047.5249  0.0018347001629433
             457.36951    0.01403730124668
             103.94869   0.068842606114048
             29.210155    0.23218442062076
              9.286663    0.46794134155879
              3.163927    0.36231203217765
 s    3 1.00
             7.8682724   -0.11933240861517
             1.8812885   -0.16085421161283
             0.5442493     1.1434564825515
 s    1 1.00
             0.1687144                   1
 p    3 1.00
             7.8682724   0.068999095584993
             1.8812885    0.31642397975315
             0.5442493    0.74430825237435
 p    1 1.00
             0.1687144                   1

20 0
 s    6 1.00
             3047.5249  0.0018347001629433
             457.36951    0.01403730124668
             103.94869   0.068842606114048
             29.210155    0.23218442062076
              9.286663    0.46794134155879
              3.163927    0.36231203217765
 s    3 1.00
             7.8682724   -0.11933240861517
             1.8812885   -0.16085421161283
             0.5442493     1.1434564825515
 s    1 1.00
             0.1687144                   1
 p    3 1.00
             7.8682724   0.068999095584993
             1.8812885    0.31642397975315
             0.5442493    0.74430825237435
 p    1 1.00
             0.1687144                   1

21 0
 s    6 1.00
             3047.5249  0.0018347001629433
             457.36951    0.01403730124668
             103.94869   0.068842606114048
             29.210155    0.23218442062076
              9.286663    0.46794134155879
              3.163927    0.36231203217765
 s    3 1.00
             7.8682724   -0.11933240861517
             1.8812885   -0.16085421161283
             0.5442493     1.1434564825515
 s    1 1.00
             0.1687144                   1
 p    3 1.00
             7.8682724   0.068999095584993
             1.8812885    0.31642397975315
             0.5442493    0.74430825237435
 p    1 1.00
             0.1687144                   1

22 0
 s    6 1.00
             3047.5249  0.0018347001629433
             457.36951    0.01403730124668
             103.94869   0.068842606114048
             29.210155    0.23218442062076
              9.286663    0.46794134155879
              3.163927    0.36231203217765
 s    3 1.00
             7.8682724   -0.11933240861517
             1.8812885   -0.16085421161283
             0.5442493     1.1434564825515
 s    1 1.00
             0.1687144                   1
 p    3 1.00
             7.8682724   0.068999095584993
             1.8812885    0.31642397975315
             0.5442493    0.74430825237435
 p    1 1.00
             0.1687144                   1

23 0
 s    6 1.00
             3047.5249  0.0018347001629433
             457.36951    0.01403730124668
             103.94869   0.068842606114048
             29.210155    0.23218442062076
              9.286663    0.46794134155879
              3.163927    0.36231203217765
 s    3 1.00
             7.8682724   -0.11933240861517
             1.8812885   -0.16085421161283
             0.5442493     1.1434564825515
 s    1 1.00
             0.1687144                   1
 p    3 1.00
             7.8682724   0.068999095584993
             1.8812885    0.31642397975315
             0.5442493    0.74430825237435
 p    1 1.00
             0.1687144                   1

24 0
 s    6 1.00
             3047.5249  0.0018347001629433
             457.36951    0.01403730124668
             103.94869   0.068842606114048
             29.210155    0.23218442062076
              9.286663    0.46794134155879
              3.163927    0.36231203217765
 s    3 1.00
             7.8682724   -0.11933240861517
             1.8812885   -0.16085421161283
             0.5442493     1.1434564825515
 s    1 1.00
             0.1687144                   1
 p    3 1.00
             7.8682724   0.068999095584993
             1.8812885    0.31642397975315
             0.5442493    0.74430825237435
 p    1 1.00
             0.1687144                   1

25 0
 s    6 1.00
             5484.6717   0.001831099805527
             825.23495   0.013950098518422
             188.04696    0.06844509273075
               52.9645    0.23271427528445
              16.89757    0.47019295006289
             5.7996353    0.35852086192309
 s    3 1.00
             15.539616   -0.11077750382508
             3.5999336   -0.14802630511126
             1.0137618     1.1307670390447
 s    1 1.00
             0.2700058                   1
 p    3 1.00
             15.539616   0.070874299543311
             3.5999336    0.33975279781076
             1.0137618    0.72715859531445
 p    1 1.00
             0.2700058                   1

26 0
 s    6 1.00
             5484.6717   0.001831099805527
             825.23495   0.013950098518422
             188.04696    0.06844509273075
               52.9645    0.23271427528445
              16.89757    0.47019295006289
             5.7996353    0.35852086192309
 s    3 1.00
             15.539616   -0.11077750382508
             3.5999336   -0.14802630511126
             1.0137618     1.1307670390447
 s    1 1.00
             0.2700058                   1
 p    3 1.00
             15.539616   0.070874299543311
             3.5999336    0.33975279781076
             1.0137618    0.72715859531445
 p    1 1.00
             0.2700058                   1

27 0
 s    6 1.00
             5484.6717   0.001831099805527
             825.23495   0.013950098518422
             188.04696    0.06844509273075
               52.9645    0.23271427528445
              16.89757    0.47019295006289
             5.7996353    0.35852086192309
 s    3 1.00
             15.539616   -0.11077750382508
             3.5999336   -0.14802630511126
             1.0137618     1.1307670390447
 s    1 1.00
             0.2700058                   1
 p    3 1.00
             15.539616   0.070874299543311
             3.5999336    0.33975279781076
             1.0137618    0.72715859531445
 p    1 1.00
             0.2700058                   1

28 0
 s    6 1.00
             5484.6717   0.001831099805527
             825.23495   0.013950098518422
             188.04696    0.06844509273075
               52.9645    0.23271427528445
              16.89757    0.47019295006289
             5.7996353    0.35852086192309
 s    3 1.00
             15.539616   -0.11077750382508
             3.5999336   -0.14802630511126
             1.0137618     1.1307670390447
 s    1 1.00
             0.2700058                   1
 p    3 1.00
             15.539616   0.070874299543311
             3.5999336    0.33975279781076
             1.0137618    0.72715859531445
 p    1 1.00
             0.2700058                   1

29 0
 s    6 1.00
             5484.6717   0.001831099805527
             825.23495   0.013950098518422
             188.04696    0.06844509273075
               52.9645    0.23271427528445
              16.89757    0.47019295006289
             5.7996353    0.35852086192309
 s    3 1.00
             15.539616   -0.11077750382508
             3.5999336   -0.14802630511126
             1.0137618     1.1307670390447
 s    1 1.00
             0.2700058                   1
 p    3 1.00
             15.539616   0.070874299543311
             3.5999336    0.33975279781076
             1.0137618    0.72715859531445
 p    1 1.00
             0.2700058                   1

30 0
 s    6 1.00
             5484.6717   0.001831099805527
             825.23495   0.013950098518422
             188.04696    0.06844509273075
               52.9645    0.23271427528445
              16.89757    0.47019295006289
             5.7996353    0.35852086192309
 s    3 1.00
             15.539616   -0.11077750382508
             3.5999336   -0.14802630511126
             1.0137618     1.1307670390447
 s    1 1.00
             0.2700058                   1
 p    3 1.00
             15.539616   0.070874299543311
             3.5999336    0.33975279781076
             1.0137618    0.72715859531445
 p    1 1.00
             0.2700058                   1

31 0
 s    3 1.00
             18.731137    0.03349459952309
             2.8253937    0.23472694665786
             0.6401217    0.81375731841339
 s    1 1.00
             0.1612778                   1

32 0
 s    3 1.00
             18.731137    0.03349459952309
             2.8253937    0.23472694665786
             0.6401217    0.81375731841339
 s    1 1.00
             0.1612778                   1

33 0
 s    3 1.00
             18.731137    0.03349459952309
             2.8253937    0.23472694665786
             0.6401217    0.81375731841339
 s    1 1.00
             0.1612778                   1

34 0
 s    3 1.00
             18.731137    0.03349459952309
             2.8253937    0.23472694665786
             0.6401217    0.81375731841339
 s    1 1.00
             0.1612778                   1

35 0
 s    3 1.00
             18.731137    0.03349459952309
             2.8253937    0.23472694665786
             0.6401217    0.81375731841339
 s    1 1.00
             0.1612778                   1

36 0
 s    3 1.00
             18.731137    0.03349459952309
             2.8253937    0.23472694665786
             0.6401217    0.81375731841339
 s    1 1.00
             0.1612778                   1

37 0
 s    3 1.00
             18.731137    0.03349459952309
             2.8253937    0.23472694665786
             0.6401217    0.81375731841339
 s    1 1.00
             0.1612778                   1

38 0
 s    3 1.00
             18.731137    0.03349459952309
             2.8253937    0.23472694665786
             0.6401217    0.81375731841339
 s    1 1.00
             0.1612778                   1

[5d]
[7f]
[9g]

[MO]
 Sym= A
 Ene=               0
 Spin= Alpha
 Occup=    1.00000
   1    0.0010960962917979
   2    -0.0018088034532306
   3    -0.010433929383016
   4    -0.0053885810310622
   5     0.047161565304657
   6    2.0195029211374e-11
   7    -0.010566527313389
   8    -0.072237314074723
   9    1.7263566553139e-11
  10    -0.013749340031786
  11     0.022978629664626
  12      0.13312837421808
  13    -0.063162868979437
  14    -0.00011909116638571
  15    -2.1352668987987e-11
  16     -0.13607921541426
  17    -0.054295707589258
  18    -9.6703452279587e-12
  19    -0.00068113104124927
  20    0.0014082793053073
  21    -0.0022835992841604
  22    0.0054640566956775
  23    -0.0079750451345282
  24    -4.0215109533553e-11
  25    0.0023125309879191
  26     0.040767790184801
  27    -2.636538118991e-11
  28    -0.00079863160165642
  29    0.0012970552223887
  30    0.0080887933904271
  31    -0.0041469063223547
  32     0.038636840470904
  33    -1.0377897939423e-10
  34    -0.0079265732472894
  35    -0.058768530308814
  36    -5.4722836858105e-11
  37    -0.0027970060626092
  38    0.0053421260006275
  39     0.030370351822113
  40     0.018014598980474
  41    0.00028163315458328
  42    -3.9539355721157e-11
  43     0.022879963301673
  44     0.017432552755783
  45    -2.0350837217089e-11
  46    -0.0017592301353474
  47    0.0031646160610464
  48     0.028797027897799
  49    -0.016313793973089
  50    0.0036887384950925
  51    -5.5798460333284e-11
  52    -0.016135584596519
  53    0.0087285152797333
  54    -2.5562191876657e-11
  55    0.00043897417761226
  56    -0.00089533007288272
  57    0.0022402763843319
  58    0.0043603257686832
  59    -0.0072084937999107
  60    -1.2206951713149e-10
  61    0.0019129916631071
  62     0.030851711072076
  63    -6.6846403602276e-11
  64     0.016734632169237
  65    -0.028049631687802
  66     -0.16168400467564
  67    -0.076682843847217
  68    0.00037335302654442
  69    8.3323793195703e-11
  70     -0.16554367658814
  71    -0.066696745273368
  72    3.8149622236372e-11
  73    0.0026335870763779
  74    -0.0050569375336814
  75    -0.032576868955637
  76    -0.017387587233365
  77    0.0047342955584416
  78    -8.2714421857323e-11
  79    -0.020375051121893
  80     0.015721364717693
  81    -3.9712817772582e-11
  82    0.00083226973510233
  83    0.0073180161648923
  84    -0.068840390277849
  85     0.017070825967017
  86    -0.020051151689213
  87    3.5446789237918e-11
  88     -0.12382153932917
  89     0.078631145885213
  90    2.0663601394193e-11
  91    0.0018397232948188
  92    -0.0033180302698638
  93    -0.025963324732856
  94     0.017296574959113
  95    -4.9839711476125e-06
  96    -1.408752245488e-10
  97     0.018408787699907
  98     0.010743039353003
  99    -8.1694149709507e-11
 100     0.000586711287091
 101    -0.011284866796613
 102      0.07006557950919
 103    -0.021163588548613
 104    -0.012966477593881
 105    -5.3758932137281e-11
 106       0.1478874141135
 107     0.085391802255754
 108    -2.1457097914741e-11
 109    -0.0012318166432046
 110     0.001413988539602
 111     0.016539863476191
 112    -0.0052518717488176
 113    -0.016083748069868
 114    1.8695179485845e-12
 115     0.045670603731727
 116    -0.019222393948062
 117    5.5156134040336e-12
 118    -0.018816386310339
 119      0.03049338823435
 120      0.20886826217659
 121     0.093498440515986
 122    -0.0044035886765238
 123    3.4423283756445e-12
 124      0.18584777201785
 125    -0.065480696896939
 126    -6.0041806685065e-13
 127    -0.00072972789914998
 128    0.0027829308593941
 129    -0.043186122096946
 130    -0.0012733562289028
 131    0.0060653521309344
 132    -1.7917394340779e-11
 133    -0.027043564966169
 134     0.012710950778123
 135    -6.5286251998411e-12
 136    0.0016367099202504
 137    -0.0019271473184615
 138    -0.022508800751493
 139    -0.0051732755671207
 140     -0.01957280883628
 141    2.6613207772851e-11
 142     0.057604659839926
 143    -0.024245131264373
 144    1.8426055705628e-11
 145    -0.0011499208399973
 146    -0.0085727937454977
 147     0.085335726469644
 148     0.021216275176212
 149    -0.025289304702806
 150    1.9006183026107e-10
 151     -0.14975088369132
 152     0.094345478949224
 153    1.0207437148636e-10
 154    -0.001301388091124
 155    0.0038100100741651
 156    -0.030274409896809
 157    -0.00014200770369553
 158    0.0034178363390452
 159    -5.9938088840896e-12
 160     0.015950281341967
 161    0.0044480693590662
 162    5.3025290366901e-13
 163    -0.00089967724431158
 164     0.014393874777575
 165    -0.087166186496453
 166    -0.025805518758952
 167    -0.015254005682275
 168    1.8261550340539e-11
 169      0.18217408465698
 170      0.10440403252005
 171    8.7226946884638e-12
 172    0.0013253888585486
 173    -0.004101836513729
 174     0.037318948848672
 175    -0.0015517986183826
 176    0.0043670500953425
 177    -1.9703595394357e-11
 178     0.022152573967149
 179    0.0079743274244103
 180    -1.4040359210281e-11
 181     0.015318849307197
 182    -0.024877034348687
 183     -0.16858345818598
 184     0.076120309238398
 185    -0.0037083703772465
 186    -1.0999700863074e-10
 187      0.15085569999764
 188    -0.053380618199964
 189    -6.3016219923282e-11
 190    -0.0035648924049708