[Molden Format]
made by pyscf v[2.11.0]
[Atoms] (AU)
C   1   6     5.47363329377744     0.02754275826554     0.00000000000000
C   2   6    -6.85126631529887    -2.34691701451171     0.00000000000000
C   3   6     2.71673452736297     0.01731745020551     0.00000000000000
C   4   6    -5.47213663068679    -0.02817959596951     0.00000000000000
C   5   6     1.37814135784893    -2.36189687350114     0.00000000000000
C   6   6    -1.37525763578285    -2.38411438354765     0.00000000000000
C   7   6    -2.71545518277664    -0.01865915575396     0.00000000000000
C   8   6     6.85342060308087     2.34830596321327     0.00000000000000
C   9   6     1.37667115092402     2.38258748483900     0.00000000000000
C   10   6    -9.62328855988824    -2.32065927001088     0.00000000000000
C   11   6    -1.37594360636606     2.36039076177986     0.00000000000000
C   12   6    -9.55752231130112     2.34616490351413     0.00000000000000
C   13   6    -5.48380757923210    -4.68010705845458     0.00000000000000
C   14   6     6.80532140403232    -2.31712359243182     0.00000000000000
C   15   6     2.81006243147686    -4.66903893254300     0.00000000000000
C   16   6     5.48319341824162     4.68218953664385     0.00000000000000
C   17   6     9.62360036469879     2.32528154011156     0.00000000000000
C   18   6    -2.82135732452339    -4.69617350996563     0.00000000000000
C   19   6     9.55480866458625    -2.34735165152036     0.00000000000000
C   20   6     2.82147826699536     4.69678578122999     0.00000000000000
C   21   6    -6.80623036229823     2.31679855953839     0.00000000000000
C   22   6     5.46723090166742    -4.64874894314355     0.00000000000000
C   23   6    -2.80738468955835     4.66746857013349     0.00000000000000
C   24   6    -5.46742365373212     4.64630174781224     0.00000000000000
O   25   8   -10.83251485836679     0.04933885938627     0.00000000000000
O   26   8    10.83595415991350    -0.04834108399250     0.00000000000000
O   27   8   -10.89906912274785     4.27076592370804     0.00000000000000
O   28   8   -11.06784623211113    -4.15258812105612     0.00000000000000
O   29   8    10.89761403363194    -4.27144244566064     0.00000000000000
O   30   8    11.06086369408087     4.15400163619729     0.00000000000000
H   31   1     1.82731413984905    -6.50052180822284     0.00000000000000
H   32   1    -6.54965279773541    -6.47293369653032     0.00000000000000
H   33   1    -1.83244096682500    -6.52843306308267     0.00000000000000
H   34   1     1.83127122635389     6.52801354388302     0.00000000000000
H   35   1     6.54794259559268     6.47548860625073     0.00000000000000
H   36   1     6.57841253962517    -6.42064497466360     0.00000000000000
H   37   1    -1.82707225490511     6.50017220888980     0.00000000000000
H   38   1    -6.57799491015164     6.41895933896049     0.00000000000000
[GTO]
1 0
 s    6 1.00
             3047.5249  0.0018347001629433
             457.36951    0.01403730124668
             103.94869   0.068842606114048
             29.210155    0.23218442062076
              9.286663    0.46794134155879
              3.163927    0.36231203217765
 s    3 1.00
             7.8682724   -0.11933240861517
             1.8812885   -0.16085421161283
             0.5442493     1.1434564825515
 s    1 1.00
             0.1687144                   1
 p    3 1.00
             7.8682724   0.068999095584993
             1.8812885    0.31642397975315
             0.5442493    0.74430825237435
 p    1 1.00
             0.1687144                   1

2 0
 s    6 1.00
             3047.5249  0.0018347001629433
             457.36951    0.01403730124668
             103.94869   0.068842606114048
             29.210155    0.23218442062076
              9.286663    0.46794134155879
              3.163927    0.36231203217765
 s    3 1.00
             7.8682724   -0.11933240861517
             1.8812885   -0.16085421161283
             0.5442493     1.1434564825515
 s    1 1.00
             0.1687144                   1
 p    3 1.00
             7.8682724   0.068999095584993
             1.8812885    0.31642397975315
             0.5442493    0.74430825237435
 p    1 1.00
             0.1687144                   1

3 0
 s    6 1.00
             3047.5249  0.0018347001629433
             457.36951    0.01403730124668
             103.94869   0.068842606114048
             29.210155    0.23218442062076
              9.286663    0.46794134155879
              3.163927    0.36231203217765
 s    3 1.00
             7.8682724   -0.11933240861517
             1.8812885   -0.16085421161283
             0.5442493     1.1434564825515
 s    1 1.00
             0.1687144                   1
 p    3 1.00
             7.8682724   0.068999095584993
             1.8812885    0.31642397975315
             0.5442493    0.74430825237435
 p    1 1.00
             0.1687144                   1

4 0
 s    6 1.00
             3047.5249  0.0018347001629433
             457.36951    0.01403730124668
             103.94869   0.068842606114048
             29.210155    0.23218442062076
              9.286663    0.46794134155879
              3.163927    0.36231203217765
 s    3 1.00
             7.8682724   -0.11933240861517
             1.8812885   -0.16085421161283
             0.5442493     1.1434564825515
 s    1 1.00
             0.1687144                   1
 p    3 1.00
             7.8682724   0.068999095584993
             1.8812885    0.31642397975315
             0.5442493    0.74430825237435
 p    1 1.00
             0.1687144                   1

5 0
 s    6 1.00
             3047.5249  0.0018347001629433
             457.36951    0.01403730124668
             103.94869   0.068842606114048
             29.210155    0.23218442062076
              9.286663    0.46794134155879
              3.163927    0.36231203217765
 s    3 1.00
             7.8682724   -0.11933240861517
             1.8812885   -0.16085421161283
             0.5442493     1.1434564825515
 s    1 1.00
             0.1687144                   1
 p    3 1.00
             7.8682724   0.068999095584993
             1.8812885    0.31642397975315
             0.5442493    0.74430825237435
 p    1 1.00
             0.1687144                   1

6 0
 s    6 1.00
             3047.5249  0.0018347001629433
             457.36951    0.01403730124668
             103.94869   0.068842606114048
             29.210155    0.23218442062076
              9.286663    0.46794134155879
              3.163927    0.36231203217765
 s    3 1.00
             7.8682724   -0.11933240861517
             1.8812885   -0.16085421161283
             0.5442493     1.1434564825515
 s    1 1.00
             0.1687144                   1
 p    3 1.00
             7.8682724   0.068999095584993
             1.8812885    0.31642397975315
             0.5442493    0.74430825237435
 p    1 1.00
             0.1687144                   1

7 0
 s    6 1.00
             3047.5249  0.0018347001629433
             457.36951    0.01403730124668
             103.94869   0.068842606114048
             29.210155    0.23218442062076
              9.286663    0.46794134155879
              3.163927    0.36231203217765
 s    3 1.00
             7.8682724   -0.11933240861517
             1.8812885   -0.16085421161283
             0.5442493     1.1434564825515
 s    1 1.00
             0.1687144                   1
 p    3 1.00
             7.8682724   0.068999095584993
             1.8812885    0.31642397975315
             0.5442493    0.74430825237435
 p    1 1.00
             0.1687144                   1

8 0
 s    6 1.00
             3047.5249  0.0018347001629433
             457.36951    0.01403730124668
             103.94869   0.068842606114048
             29.210155    0.23218442062076
              9.286663    0.46794134155879
              3.163927    0.36231203217765
 s    3 1.00
             7.8682724   -0.11933240861517
             1.8812885   -0.16085421161283
             0.5442493     1.1434564825515
 s    1 1.00
             0.1687144                   1
 p    3 1.00
             7.8682724   0.068999095584993
             1.8812885    0.31642397975315
             0.5442493    0.74430825237435
 p    1 1.00
             0.1687144                   1

9 0
 s    6 1.00
             3047.5249  0.0018347001629433
             457.36951    0.01403730124668
             103.94869   0.068842606114048
             29.210155    0.23218442062076
              9.286663    0.46794134155879
              3.163927    0.36231203217765
 s    3 1.00
             7.8682724   -0.11933240861517
             1.8812885   -0.16085421161283
             0.5442493     1.1434564825515
 s    1 1.00
             0.1687144                   1
 p    3 1.00
             7.8682724   0.068999095584993
             1.8812885    0.31642397975315
             0.5442493    0.74430825237435
 p    1 1.00
             0.1687144                   1

10 0
 s    6 1.00
             3047.5249  0.0018347001629433
             457.36951    0.01403730124668
             103.94869   0.068842606114048
             29.210155    0.23218442062076
              9.286663    0.46794134155879
              3.163927    0.36231203217765
 s    3 1.00
             7.8682724   -0.11933240861517
             1.8812885   -0.16085421161283
             0.5442493     1.1434564825515
 s    1 1.00
             0.1687144                   1
 p    3 1.00
             7.8682724   0.068999095584993
             1.8812885    0.31642397975315
             0.5442493    0.74430825237435
 p    1 1.00
             0.1687144                   1

11 0
 s    6 1.00
             3047.5249  0.0018347001629433
             457.36951    0.01403730124668
             103.94869   0.068842606114048
             29.210155    0.23218442062076
              9.286663    0.46794134155879
              3.163927    0.36231203217765
 s    3 1.00
             7.8682724   -0.11933240861517
             1.8812885   -0.16085421161283
             0.5442493     1.1434564825515
 s    1 1.00
             0.1687144                   1
 p    3 1.00
             7.8682724   0.068999095584993
             1.8812885    0.31642397975315
             0.5442493    0.74430825237435
 p    1 1.00
             0.1687144                   1

12 0
 s    6 1.00
             3047.5249  0.0018347001629433
             457.36951    0.01403730124668
             103.94869   0.068842606114048
             29.210155    0.23218442062076
              9.286663    0.46794134155879
              3.163927    0.36231203217765
 s    3 1.00
             7.8682724   -0.11933240861517
             1.8812885   -0.16085421161283
             0.5442493     1.1434564825515
 s    1 1.00
             0.1687144                   1
 p    3 1.00
             7.8682724   0.068999095584993
             1.8812885    0.31642397975315
             0.5442493    0.74430825237435
 p    1 1.00
             0.1687144                   1

13 0
 s    6 1.00
             3047.5249  0.0018347001629433
             457.36951    0.01403730124668
             103.94869   0.068842606114048
             29.210155    0.23218442062076
              9.286663    0.46794134155879
              3.163927    0.36231203217765
 s    3 1.00
             7.8682724   -0.11933240861517
             1.8812885   -0.16085421161283
             0.5442493     1.1434564825515
 s    1 1.00
             0.1687144                   1
 p    3 1.00
             7.8682724   0.068999095584993
             1.8812885    0.31642397975315
             0.5442493    0.74430825237435
 p    1 1.00
             0.1687144                   1

14 0
 s    6 1.00
             3047.5249  0.0018347001629433
             457.36951    0.01403730124668
             103.94869   0.068842606114048
             29.210155    0.23218442062076
              9.286663    0.46794134155879
              3.163927    0.36231203217765
 s    3 1.00
             7.8682724   -0.11933240861517
             1.8812885   -0.16085421161283
             0.5442493     1.1434564825515
 s    1 1.00
             0.1687144                   1
 p    3 1.00
             7.8682724   0.068999095584993
             1.8812885    0.31642397975315
             0.5442493    0.74430825237435
 p    1 1.00
             0.1687144                   1

15 0
 s    6 1.00
             3047.5249  0.0018347001629433
             457.36951    0.01403730124668
             103.94869   0.068842606114048
             29.210155    0.23218442062076
              9.286663    0.46794134155879
              3.163927    0.36231203217765
 s    3 1.00
             7.8682724   -0.11933240861517
             1.8812885   -0.16085421161283
             0.5442493     1.1434564825515
 s    1 1.00
             0.1687144                   1
 p    3 1.00
             7.8682724   0.068999095584993
             1.8812885    0.31642397975315
             0.5442493    0.74430825237435
 p    1 1.00
             0.1687144                   1

16 0
 s    6 1.00
             3047.5249  0.0018347001629433
             457.36951    0.01403730124668
             103.94869   0.068842606114048
             29.210155    0.23218442062076
              9.286663    0.46794134155879
              3.163927    0.36231203217765
 s    3 1.00
             7.8682724   -0.11933240861517
             1.8812885   -0.16085421161283
             0.5442493     1.1434564825515
 s    1 1.00
             0.1687144                   1
 p    3 1.00
             7.8682724   0.068999095584993
             1.8812885    0.31642397975315
             0.5442493    0.74430825237435
 p    1 1.00
             0.1687144                   1

17 0
 s    6 1.00
             3047.5249  0.0018347001629433
             457.36951    0.01403730124668
             103.94869   0.068842606114048
             29.210155    0.23218442062076
              9.286663    0.46794134155879
              3.163927    0.36231203217765
 s    3 1.00
             7.8682724   -0.11933240861517
             1.8812885   -0.16085421161283
             0.5442493     1.1434564825515
 s    1 1.00
             0.1687144                   1
 p    3 1.00
             7.8682724   0.068999095584993
             1.8812885    0.31642397975315
             0.5442493    0.74430825237435
 p    1 1.00
             0.1687144                   1

18 0
 s    6 1.00
             3047.5249  0.0018347001629433
             457.36951    0.01403730124668
             103.94869   0.068842606114048
             29.210155    0.23218442062076
              9.286663    0.46794134155879
              3.163927    0.36231203217765
 s    3 1.00
             7.8682724   -0.11933240861517
             1.8812885   -0.16085421161283
             0.5442493     1.1434564825515
 s    1 1.00
             0.1687144                   1
 p    3 1.00
             7.8682724   0.068999095584993
             1.8812885    0.31642397975315
             0.5442493    0.74430825237435
 p    1 1.00
             0.1687144                   1

19 0
 s    6 1.00
             3047.5249  0.0018347001629433
             457.36951    0.01403730124668
             103.94869   0.068842606114048
             29.210155    0.23218442062076
              9.286663    0.46794134155879
              3.163927    0.36231203217765
 s    3 1.00
             7.8682724   -0.11933240861517
             1.8812885   -0.16085421161283
             0.5442493     1.1434564825515
 s    1 1.00
             0.1687144                   1
 p    3 1.00
             7.8682724   0.068999095584993
             1.8812885    0.31642397975315
             0.5442493    0.74430825237435
 p    1 1.00
             0.1687144                   1

20 0
 s    6 1.00
             3047.5249  0.0018347001629433
             457.36951    0.01403730124668
             103.94869   0.068842606114048
             29.210155    0.23218442062076
              9.286663    0.46794134155879
              3.163927    0.36231203217765
 s    3 1.00
             7.8682724   -0.11933240861517
             1.8812885   -0.16085421161283
             0.5442493     1.1434564825515
 s    1 1.00
             0.1687144                   1
 p    3 1.00
             7.8682724   0.068999095584993
             1.8812885    0.31642397975315
             0.5442493    0.74430825237435
 p    1 1.00
             0.1687144                   1

21 0
 s    6 1.00
             3047.5249  0.0018347001629433
             457.36951    0.01403730124668
             103.94869   0.068842606114048
             29.210155    0.23218442062076
              9.286663    0.46794134155879
              3.163927    0.36231203217765
 s    3 1.00
             7.8682724   -0.11933240861517
             1.8812885   -0.16085421161283
             0.5442493     1.1434564825515
 s    1 1.00
             0.1687144                   1
 p    3 1.00
             7.8682724   0.068999095584993
             1.8812885    0.31642397975315
             0.5442493    0.74430825237435
 p    1 1.00
             0.1687144                   1

22 0
 s    6 1.00
             3047.5249  0.0018347001629433
             457.36951    0.01403730124668
             103.94869   0.068842606114048
             29.210155    0.23218442062076
              9.286663    0.46794134155879
              3.163927    0.36231203217765
 s    3 1.00
             7.8682724   -0.11933240861517
             1.8812885   -0.16085421161283
             0.5442493     1.1434564825515
 s    1 1.00
             0.1687144                   1
 p    3 1.00
             7.8682724   0.068999095584993
             1.8812885    0.31642397975315
             0.5442493    0.74430825237435
 p    1 1.00
             0.1687144                   1

23 0
 s    6 1.00
             3047.5249  0.0018347001629433
             457.36951    0.01403730124668
             103.94869   0.068842606114048
             29.210155    0.23218442062076
              9.286663    0.46794134155879
              3.163927    0.36231203217765
 s    3 1.00
             7.8682724   -0.11933240861517
             1.8812885   -0.16085421161283
             0.5442493     1.1434564825515
 s    1 1.00
             0.1687144                   1
 p    3 1.00
             7.8682724   0.068999095584993
             1.8812885    0.31642397975315
             0.5442493    0.74430825237435
 p    1 1.00
             0.1687144                   1

24 0
 s    6 1.00
             3047.5249  0.0018347001629433
             457.36951    0.01403730124668
             103.94869   0.068842606114048
             29.210155    0.23218442062076
              9.286663    0.46794134155879
              3.163927    0.36231203217765
 s    3 1.00
             7.8682724   -0.11933240861517
             1.8812885   -0.16085421161283
             0.5442493     1.1434564825515
 s    1 1.00
             0.1687144                   1
 p    3 1.00
             7.8682724   0.068999095584993
             1.8812885    0.31642397975315
             0.5442493    0.74430825237435
 p    1 1.00
             0.1687144                   1

25 0
 s    6 1.00
             5484.6717   0.001831099805527
             825.23495   0.013950098518422
             188.04696    0.06844509273075
               52.9645    0.23271427528445
              16.89757    0.47019295006289
             5.7996353    0.35852086192309
 s    3 1.00
             15.539616   -0.11077750382508
             3.5999336   -0.14802630511126
             1.0137618     1.1307670390447
 s    1 1.00
             0.2700058                   1
 p    3 1.00
             15.539616   0.070874299543311
             3.5999336    0.33975279781076
             1.0137618    0.72715859531445
 p    1 1.00
             0.2700058                   1

26 0
 s    6 1.00
             5484.6717   0.001831099805527
             825.23495   0.013950098518422
             188.04696    0.06844509273075
               52.9645    0.23271427528445
              16.89757    0.47019295006289
             5.7996353    0.35852086192309
 s    3 1.00
             15.539616   -0.11077750382508
             3.5999336   -0.14802630511126
             1.0137618     1.1307670390447
 s    1 1.00
             0.2700058                   1
 p    3 1.00
             15.539616   0.070874299543311
             3.5999336    0.33975279781076
             1.0137618    0.72715859531445
 p    1 1.00
             0.2700058                   1

27 0
 s    6 1.00
             5484.6717   0.001831099805527
             825.23495   0.013950098518422
             188.04696    0.06844509273075
               52.9645    0.23271427528445
              16.89757    0.47019295006289
             5.7996353    0.35852086192309
 s    3 1.00
             15.539616   -0.11077750382508
             3.5999336   -0.14802630511126
             1.0137618     1.1307670390447
 s    1 1.00
             0.2700058                   1
 p    3 1.00
             15.539616   0.070874299543311
             3.5999336    0.33975279781076
             1.0137618    0.72715859531445
 p    1 1.00
             0.2700058                   1

28 0
 s    6 1.00
             5484.6717   0.001831099805527
             825.23495   0.013950098518422
             188.04696    0.06844509273075
               52.9645    0.23271427528445
              16.89757    0.47019295006289
             5.7996353    0.35852086192309
 s    3 1.00
             15.539616   -0.11077750382508
             3.5999336   -0.14802630511126
             1.0137618     1.1307670390447
 s    1 1.00
             0.2700058                   1
 p    3 1.00
             15.539616   0.070874299543311
             3.5999336    0.33975279781076
             1.0137618    0.72715859531445
 p    1 1.00
             0.2700058                   1

29 0
 s    6 1.00
             5484.6717   0.001831099805527
             825.23495   0.013950098518422
             188.04696    0.06844509273075
               52.9645    0.23271427528445
              16.89757    0.47019295006289
             5.7996353    0.35852086192309
 s    3 1.00
             15.539616   -0.11077750382508
             3.5999336   -0.14802630511126
             1.0137618     1.1307670390447
 s    1 1.00
             0.2700058                   1
 p    3 1.00
             15.539616   0.070874299543311
             3.5999336    0.33975279781076
             1.0137618    0.72715859531445
 p    1 1.00
             0.2700058                   1

30 0
 s    6 1.00
             5484.6717   0.001831099805527
             825.23495   0.013950098518422
             188.04696    0.06844509273075
               52.9645    0.23271427528445
              16.89757    0.47019295006289
             5.7996353    0.35852086192309
 s    3 1.00
             15.539616   -0.11077750382508
             3.5999336   -0.14802630511126
             1.0137618     1.1307670390447
 s    1 1.00
             0.2700058                   1
 p    3 1.00
             15.539616   0.070874299543311
             3.5999336    0.33975279781076
             1.0137618    0.72715859531445
 p    1 1.00
             0.2700058                   1

31 0
 s    3 1.00
             18.731137    0.03349459952309
             2.8253937    0.23472694665786
             0.6401217    0.81375731841339
 s    1 1.00
             0.1612778                   1

32 0
 s    3 1.00
             18.731137    0.03349459952309
             2.8253937    0.23472694665786
             0.6401217    0.81375731841339
 s    1 1.00
             0.1612778                   1

33 0
 s    3 1.00
             18.731137    0.03349459952309
             2.8253937    0.23472694665786
             0.6401217    0.81375731841339
 s    1 1.00
             0.1612778                   1

34 0
 s    3 1.00
             18.731137    0.03349459952309
             2.8253937    0.23472694665786
             0.6401217    0.81375731841339
 s    1 1.00
             0.1612778                   1

35 0
 s    3 1.00
             18.731137    0.03349459952309
             2.8253937    0.23472694665786
             0.6401217    0.81375731841339
 s    1 1.00
             0.1612778                   1

36 0
 s    3 1.00
             18.731137    0.03349459952309
             2.8253937    0.23472694665786
             0.6401217    0.81375731841339
 s    1 1.00
             0.1612778                   1

37 0
 s    3 1.00
             18.731137    0.03349459952309
             2.8253937    0.23472694665786
             0.6401217    0.81375731841339
 s    1 1.00
             0.1612778                   1

38 0
 s    3 1.00
             18.731137    0.03349459952309
             2.8253937    0.23472694665786
             0.6401217    0.81375731841339
 s    1 1.00
             0.1612778                   1

[5d]
[7f]
[9g]

[MO]
 Sym= A
 Ene=               0
 Spin= Alpha
 Occup=    1.00000
   1    1.0816859266178e-10
   2    -1.8596919191951e-11
   3    1.1649410232586e-10
   4    9.2993143431173e-10
   5    -1.1100454276764e-09
   6    -0.0012564665832635
   7    6.5794964554664e-10
   8    1.0271114508821e-10
   9    -0.0012553708729043
  10    -4.1674919228387e-10
  11    4.5908288988837e-10
  12    6.3787193991253e-10
  13    2.1624686704713e-10
  14    -2.4718165112982e-09
  15      0.19766898746007
  16    -8.3923182915635e-10
  17    1.295825420619e-11
  18      0.16276412566755
  19    3.7840321418415e-10
  20    -9.5059600654173e-10
  21    -1.2938450666199e-09
  22    -1.0133624327613e-10
  23    -1.41022495691e-09
  24    -0.0011776728507341
  25    6.3499713727391e-10
  26    3.0648188739123e-11
  27    -0.0013352833193582
  28    4.0717995735442e-10
  29    -9.3790459475088e-10
  30    -1.3217155701024e-09
  31    -2.3681306509488e-10
  32    1.8802464238464e-09
  33    -0.0014918707065587
  34    4.4462210998727e-10
  35    4.9428396794196e-11
  36    -0.0015054999422403
  37    -1.3747867032882e-10
  38    4.861668291822e-10
  39    1.5364513903997e-09
  40    -1.0558395646655e-09
  41    1.505017470345e-09
  42      0.13053928688935
  43    1.2475185010679e-10
  44    6.5862442837665e-10
  45      0.10451491122008
  46    -1.0867353574591e-10
  47    1.2933297314204e-10
  48    5.2684692875415e-10
  49    1.4768998541162e-09
  50    1.0625297773516e-09
  51     -0.12634248077257
  52    7.8848899960185e-11
  53    7.3595486357135e-10
  54     -0.10057419186029
  55    -1.8779364063685e-10
  56    3.7422094065194e-10
  57    7.1076307348091e-10
  58    1.1124682133618e-09
  59    1.0707384989417e-09
  60    -0.0014633172361103
  61    7.7058898825041e-10
  62    1.4153758729473e-09
  63    -0.0015302334267275
  64    8.2752250343244e-12
  65    -9.481530929513e-11
  66    -5.7155337147667e-10
  67    -4.2045746132639e-10
  68    1.0180929245364e-09
  69      0.19853802642646
  70    5.4023415703708e-10
  71    1.2458091012405e-10
  72      0.16342534694264
  73    -2.8048296188289e-10
  74    6.8694386523394e-10
  75    5.2134369140876e-10
  76    2.2768411876387e-09
  77    3.7737250694483e-09
  78      -0.1267903837785
  79    -3.5755170885203e-10
  80    2.1216124076299e-10
  81     -0.10091642334793
  82    4.4887861888277e-10
  83    -9.1793383465223e-10
  84    -1.0768873599066e-09
  85    6.5694178626846e-10
  86    1.4378067774663e-09
  87      0.03564145018497
  88    -6.0343868457287e-10
  89    -3.8450742383286e-10
  90     0.012816888542944
  91    2.5158745608353e-10
  92    -6.4685942476849e-10
  93    -2.0597557750253e-09
  94    -1.5421605918635e-09
  95    -7.7084059774251e-10
  96      0.13014642860936
  97    -7.6968356978392e-10
  98    8.9194326824944e-10
  99      0.10420971775377
 100    1.8351728077564e-10
 101    -1.9163498924431e-10
 102    2.5078993870984e-10
 103    1.2962094351868e-09
 104    2.8120838967829e-10
 105     -0.03248024529834
 106    3.9093265436866e-10
 107    -1.1530821522404e-11
 108    -0.0093225518716356
 109    -1.4033984106305e-10
 110    6.4180829746282e-10
 111    1.343794593248e-09
 112    2.7478407622872e-10
 113    2.722551302536e-09
 114     0.041650029260538
 115    1.8820036510746e-10
 116    1.5112708415599e-09
 117     0.028104640288063
 118    1.5334405443693e-10
 119    -5.1150229309498e-10
 120    1.5073683792712e-10
 121    5.4353894133436e-10
 122    2.1854819447042e-09
 123      -0.1970266439707
 124    -3.2209902329793e-10
 125    1.302068870193e-10
 126     -0.16161752452834
 127    -3.0729448204449e-10
 128    3.705599253844e-10
 129    -3.8598450590701e-11
 130    1.040604200459e-09
 131    -1.5703886453544e-09
 132      0.16638670821961
 133    4.0425173680582e-10
 134    -6.5119174028711e-10
 135      0.12981995146933
 136    -1.3878882483722e-10
 137    1.015650665428e-10
 138    4.2713082676016e-10
 139    2.3786581471479e-09
 140    -2.8442865074169e-10
 141     0.041640917322333
 142    9.9760871149222e-10
 143    -1.966187612122e-10
 144     0.028191415986536
 145    1.4679130393087e-10
 146    -4.5157370582349e-10
 147    -9.4808274237089e-10
 148    7.8745430000193e-10
 149    -1.0768519774765e-10
 150     0.035708972558839
 151    5.249035576607e-10
 152    2.2193124558904e-10
 153     0.013033221272969
 154    -7.8706452910148e-11
 155    2.2819454914014e-10
 156    1.3520507046759e-10
 157    -5.4826416594586e-10
 158    -9.1663924964758e-10
 159     -0.16822531878866
 160    2.2553427409272e-10
 161    -5.106768489186e-10
 162     -0.13248417634363
 163    1.585233005458e-10
 164    -8.6212333774076e-11
 165    3.1264148293524e-10
 166    -2.9501438528758e-10
 167    -3.3440519581217e-10
 168    -0.032537302526151
 169    -1.1858103705597e-10
 170    3.4160102936506e-10
 171    -0.009266588740636
 172    -3.3842402366485e-10
 173    5.7213044584711e-10
 174    1.5631644187767e-09
 175    -2.6849957328491e-09
 176    -3.6085285807765e-09
 177     -0.16863978551792
 178    -8.6970986653792e-10
 179    -1.72670787047e-09
 180     -0.13283640376658
 181    -2.261503587352e-10
 182    5.0451667041099e-10
 183    9.562933930923e-10
 184    -4.9181097956198e-10
 185    -1.3402025412994e-09
 186     -0.19666216824465