[Molden Format]
made by pyscf v[2.11.0]
[Atoms] (AU)
O   1   8     0.00000000000000     0.00000000000000     0.22166487441148
H   2   1     0.00000000000000     1.43090062152066    -0.88665949764593
H   3   1     0.00000000000000    -1.43090062152066    -0.88665949764593
[GTO]
1 0
 s    6 1.00
             5484.6717   0.001831099805527
             825.23495   0.013950098518422
             188.04696    0.06844509273075
               52.9645    0.23271427528445
              16.89757    0.47019295006289
             5.7996353    0.35852086192309
 s    3 1.00
             15.539616   -0.11077750382508
             3.5999336   -0.14802630511126
             1.0137618     1.1307670390447
 s    1 1.00
             0.2700058                   1
 p    3 1.00
             15.539616   0.070874299543311
             3.5999336    0.33975279781076
             1.0137618    0.72715859531445
 p    1 1.00
             0.2700058                   1

2 0
 s    3 1.00
             18.731137    0.03349459952309
             2.8253937    0.23472694665786
             0.6401217    0.81375731841339
 s    1 1.00
             0.1612778                   1

3 0
 s    3 1.00
             18.731137    0.03349459952309
             2.8253937    0.23472694665786
             0.6401217    0.81375731841339
 s    1 1.00
             0.1612778                   1

[5d]
[7f]
[9g]

[MO]
 Sym= A
 Ene=               0
 Spin= Alpha
 Occup=    1.00000
   1    -7.5864220418093e-15
   2    1.6755624914631e-14
   3    3.2732297482091e-14
   4      0.64622412089087
   5    -5.6877918906017e-14
   6    4.842514130867e-14
   7      0.50502032483335
   8    -2.5830588456896e-14
   9    3.3297422505536e-14
  10    -4.2314532657445e-14
  11    -2.5686879919314e-14
  12     1.64792553625e-14
  13    6.7882518272275e-15
 Sym= A
 Ene=               1
 Spin= Alpha
 Occup=    1.00000
   1     -0.15870281258307
   2      0.50491318090538
   3      0.56749550205619
   4    -2.5238881262638e-14
   5    -1.1053929328017e-12
   6      0.11603331734707
   7    -1.9725552034575e-14
   8    -4.988449740535e-13
   9      0.11248421435617
  10     0.068796198908794
  11    -0.047468723482611
  12     0.068796198909939
  13    -0.047468723481969
 Sym= A
 Ene=               2
 Spin= Alpha
 Occup=    1.00000
   1     0.026533281704315
   2    0.0086681831413556
   3    -0.032298738854003
   4    8.1410453699744e-14
   5      0.50056840694556
   6     -0.13700600650386
   7    6.3468094559388e-14
   8       0.2263268595707
   9    -0.090356929297151
  10      0.30745030314241
  11      0.16755742655209
  12     -0.21103954750414
  13     -0.12190932616487
 Sym= A
 Ene=               3
 Spin= Alpha
 Occup=    1.00000
   1     0.014629604990006
   2     -0.03484512782584
   3       0.1207525157944
   4    -3.2132510587947e-14
   5       0.1275338135376
   6      0.53711640454145
   7    -2.5159414882061e-14
   8     0.057663102797812
   9       0.3544362525528
  10      -0.1239008885141
  11    -0.052054850088547
  12     -0.25600069149005
  13     -0.12580460807188
 Sym= A
 Ene=               4
 Spin= Alpha
 Occup=    1.00000
   1       1.0079559800226
   2    -0.0069812282531833
   3    -0.051084841607257
   4    -7.9684412742023e-16
   5    -0.015027929958336
   6    -0.0053483768682122
   7    -6.1874844740582e-16
   8    -0.0067947240499513
   9    -0.0018111084450941
  10    -0.014108500085668
  11    0.0012079110299012
  12    0.0014574626309362
  13    0.0098982039543818
 Sym= A
 Ene=               5
 Spin= Alpha
 Occup=    0.00000
   1    -0.088058924621574
   2      0.16070417416054
   3       1.0756188046538
   4    5.2724610471034e-16
   5    -2.1138884111611e-13
   6     -0.31062374174089
   7    -7.3599899990096e-16
   8    -3.1438825468752e-13
   9     -0.41582159088686
  10    -0.096776611832807
  11     -0.92821598350802
  12    -0.096776611832898
  13     -0.92821598350916
 Sym= A
 Ene=               6
 Spin= Alpha
 Occup=    0.00000
   1    -3.0743299513426e-15
   2    -1.9221344159953e-13
   3    2.7564861122564e-13
   4     -0.95835311898027
   5    -1.4756780749699e-12
   6    -4.5054771244411e-13
   7       1.0397118767166
   8    -1.892094688853e-12
   9    2.2817482754861e-13
  10    -1.9208699602725e-13
  11    3.9835492301851e-12
  12    -6.4450052602623e-13
  13    -3.528579700551e-12
 Sym= A
 Ene=               7
 Spin= Alpha
 Occup=    0.00000
   1     -0.02060624564906
   2      0.27917156433239
   3     -0.33148552151451
   4    -2.8763828857949e-12
   5      0.46683289045265
   6      0.09798340599014
   7    3.1206298023221e-12
   8      0.68595930071247
   9     -0.11606691704639
  10     -0.21170400996464
  11      -1.0757186007753
  12     0.090806770248667
  13       1.2649076673061
 Sym= A
 Ene=               8
 Spin= Alpha
 Occup=    0.00000
   1    -0.00083989811159745
   2    -0.043020724695265
   3    0.0014065480378215
   4    -3.8907616607612e-14
   5     -0.59762231710261
   6     -0.32985671269301
   7    4.264149238893e-14
   8      0.48471946780247
   9      0.26379143564162
  10      0.54460602170022
  11     -0.93358705339009
  12     -0.94119901439034
  13       1.2866790664189
 Sym= A
 Ene=               9
 Spin= Alpha
 Occup=    0.00000
   1     0.080195944074175
   2     -0.55494468113286
   3      0.39881601627079
   4    -7.2703575215116e-13
   5      0.10858197584863
   6      0.10484912605125
   7    7.8881660162141e-13
   8     -0.18443479651901
   9      0.42912057359707
  10       1.1333293963685
  11     -0.79300787364686
  12      0.69330730413183
  13     -0.29600589681284
 Sym= A
 Ene=              10
 Spin= Alpha
 Occup=    0.00000
   1     0.032893968853937
   2     -0.15842392652744
   3     -0.21638735413518
   4    7.6984544328916e-14
   5      0.14822415124693
   6     -0.87649023987546
   7    -8.3723078043438e-14
   8      0.23480159894106
   9       1.0939962857501
  10     -0.34798731877146
  11      0.42002983531015
  12      0.39896760623632
  13      0.15729885809472
 Sym= A
 Ene=              11
 Spin= Alpha
 Occup=    0.00000
   1     0.011649331629765
   2    -0.099737648163192
   3      0.14018621315251
   4    1.9371289328022e-14
   5     -0.75287834426722
   6      0.18459832710204
   7    -2.0799912543338e-14
   8        1.685212413516
   9     -0.11195188664079
  10     -0.24891547044125
  11     -0.71392530042691
  12      0.63178675282088
  13      0.36499611886714
 Sym= A
 Ene=              12
 Spin= Alpha
 Occup=    0.00000
   1     0.047293720076396
   2      -1.6192620172543
   3       2.7455232453828
   4    -1.4064377276458e-13
   5     0.091021518021253
   6      0.16084954639509
   7    1.5247239674173e-13
   8     0.041822226948579
   9     -0.89216352492869
  10     -0.59706723158243
  11     -0.65633233009709
  12     -0.48196168708705
  13     -0.52286163693864
