[Molden Format]
made by pyscf v[2.11.0]
[Atoms] (AU)
O   1   8     0.00000000000000     0.00000000000000     0.22166487441148
H   2   1     0.00000000000000     1.43090062152066    -0.88665949764593
H   3   1     0.00000000000000    -1.43090062152066    -0.88665949764593
[GTO]
1 0
 s    6 1.00
             5484.6717   0.001831099805527
             825.23495   0.013950098518422
             188.04696    0.06844509273075
               52.9645    0.23271427528445
              16.89757    0.47019295006289
             5.7996353    0.35852086192309
 s    3 1.00
             15.539616   -0.11077750382508
             3.5999336   -0.14802630511126
             1.0137618     1.1307670390447
 s    1 1.00
             0.2700058                   1
 p    3 1.00
             15.539616   0.070874299543311
             3.5999336    0.33975279781076
             1.0137618    0.72715859531445
 p    1 1.00
             0.2700058                   1

2 0
 s    3 1.00
             18.731137    0.03349459952309
             2.8253937    0.23472694665786
             0.6401217    0.81375731841339
 s    1 1.00
             0.1612778                   1

3 0
 s    3 1.00
             18.731137    0.03349459952309
             2.8253937    0.23472694665786
             0.6401217    0.81375731841339
 s    1 1.00
             0.1612778                   1

[5d]
[7f]
[9g]

[MO]
 Sym= A
 Ene=               0
 Spin= Alpha
 Occup=    1.00000
   1    -0.095699106358993
   2      0.21253448017347
   3       0.3847160503028
   4    -6.2004039534713e-14
   5    7.631550480964e-14
   6      0.54137590852797
   7    -4.8464045171631e-14
   8    3.4090305816904e-14
   9      0.37453295383101
  10      -0.1381642300197
  11     -0.10342788835197
  12     -0.13816423001978
  13     -0.10342788835201
 Sym= A
 Ene=               1
 Spin= Alpha
 Occup=    1.00000
   1    4.3458374739186e-14
   2    -9.1972197927125e-14
   3    -1.1707425311419e-13
   4    2.8227498940442e-13
   5      0.51677794293709
   6    -5.761332321034e-14
   7    2.2043538754407e-13
   8      0.23365583464216
   9    -4.3980889020318e-14
  10      0.26763986173824
  11      0.14942017009279
  12     -0.26763986173824
  13     -0.14942017009276
 Sym= A
 Ene=               2
 Spin= Alpha
 Occup=    1.00000
   1    -7.4743491499031e-15
   2    2.8133713508907e-14
   3    4.4783398582266e-14
   4      0.64622412089087
   5    -2.2583015615424e-13
   6    4.9055425115543e-14
   7      0.50502032483335
   8    -1.0222060577174e-13
   9    3.4521872045646e-14
  10    -1.2761501577105e-13
  11    -7.5255735325832e-14
  12    1.0617986908551e-13
  13    5.4920439478801e-14
 Sym= A
 Ene=               3
 Spin= Alpha
 Occup=    1.00000
   1     -0.20675798561153
   2      0.45861614849357
   3      0.43829509855882
   4    -1.0886670042935e-14
   5    6.8823778290202e-14
   6     -0.16632622555378
   7    -8.5049820454862e-15
   8    3.2432747830681e-14
   9    -0.078504749519774
  10      0.15520512323823
  11    0.0025866211497267
  12      0.15520512323815
  13    0.0025866211496896
 Sym= A
 Ene=               4
 Spin= Alpha
 Occup=    1.00000
   1      0.99507421692719
   2     0.027851413077203
   3     -0.01327221597963
   4    -3.3761596278039e-15
   5    -8.8473594181422e-16
   6    -0.0021739535206172
   7    -2.6391737921909e-15
   8    -4.0629651229389e-16
   9    0.0027351757270572
  10    7.4218029697965e-05
  11    0.0030873030537829
  12    7.4218029698884e-05
  13    0.0030873030537834
 Sym= A
 Ene=               5
 Spin= Alpha
 Occup=    0.00000
   1    -0.089626040865681
   2      0.17632470682976
   3       1.0662543964475
   4    -2.6079565061974e-15
   5    8.6661131925584e-14
   6     -0.28309143440182
   7    2.6683652082684e-15
   8    1.4506420155122e-13
   9     -0.44814814497515
  10    -0.097965542535541
  11     -0.93214575549432
  12    -0.097965542535531
  13     -0.93214575549377
 Sym= A
 Ene=               6
 Spin= Alpha
 Occup=    0.00000
   1    2.5506783587713e-14
   2    -1.4017513303933e-13
   3    -8.1344300689972e-14
   4    1.0985748825548e-13
   5      0.58246569716962
   6    3.6840731543706e-14
   7    -1.1922394927077e-13
   8      0.59816767226002
   9    1.1453952862977e-13
  10     -0.27086606185933
  11       -1.001984415639
  12      0.27086606185943
  13       1.0019844156393
 Sym= A
 Ene=               7
 Spin= Alpha
 Occup=    0.00000
   1    5.2367148693499e-15
   2    -5.5646309845691e-14
   3    4.1509314752216e-14
   4     -0.95835311898027
   5    2.9530256670221e-13
   6    -7.459360574807e-14
   7       1.0397118767166
   8    -3.2674709555263e-13
   9    8.8490501006613e-14
  10    -8.6013710265776e-14
  11    2.2200744935102e-13
  12    9.9178687736702e-14
  13    -2.1101374037053e-13
 Sym= A
 Ene=               8
 Spin= Alpha
 Occup=    0.00000
   1     0.074951059950474
   2      -1.1529606626154
   3       1.7151742200726
   4    -9.9930049051955e-15
   5    2.0556911145907e-12
   6      0.57265985537435
   7    1.084366854694e-14
   8    -4.0029489180876e-12
   9     -0.56193256090768
  10      0.50517625547711
  11     -0.86279927382679
  12      0.50517625547706
  13     -0.86279927383201
 Sym= A
 Ene=               9
 Spin= Alpha
 Occup=    0.00000
   1     0.066379163426482
   2     -0.72814426350465
   3      0.62978941389146
   4    8.355781541677e-14
   5    -1.298556996857e-11
   6     -0.80042002406397
   7    -9.0750902068747e-14
   8    2.4528611998083e-11
   9      0.97473652405314
  10      0.16928432916216
  11    -0.059343594512792
  12      0.16928432916184
  13    -0.059343594480671
 Sym= A
 Ene=              10
 Spin= Alpha
 Occup=    0.00000
   1    -0.0017726324056699
   2     -0.64836022205987
   3       1.2738255612733
   4    -7.1875437304069e-14
   5     -0.14694814676262
   6       0.0435280767353
   7    7.822615860921e-14
   8     -0.20398491826567
   9     -0.59046883407222
  10      0.17626322131293
  11     -0.90064953182795
  12      -1.3221079761744
  13      0.65386853452335
 Sym= A
 Ene=              11
 Spin= Alpha
 Occup=    0.00000
   1    9.7803690931464e-05
   2     0.035772799299088
   3    -0.070282390233963
   4    -2.263832331208e-13
   5     -0.90436477079334
   6    -0.002401629667346
   7    2.4598563165408e-13
   8       1.7849942303619
   9     0.032578684442233
  10    -0.066460900631876
  11      -1.0329720837857
  12      0.12968204381519
  13       1.0465880441481
 Sym= A
 Ene=              12
 Spin= Alpha
 Occup=    0.00000
   1    -0.0023809232933255
   2     -0.87084944985008
   3       1.7109474818093
   4    4.8241392417843e-14
   5     0.072255512873542
   6     0.058465032842247
   7    -5.2607001773542e-14
   8      0.22519385787844
   9     -0.79309223762836
  10      -1.3313328756434
  11      0.37023585162778
  12     -0.20771631403757
  13     -0.70170142959448
