[Molden Format]
made by pyscf v[2.11.0]
[Atoms] (AU)
O   1   8     0.00000000000000     0.00000000000000     0.22166487441148
H   2   1     0.00000000000000     1.43090062152066    -0.88665949764593
H   3   1     0.00000000000000    -1.43090062152066    -0.88665949764593
[GTO]
1 0
 s    6 1.00
             5484.6717   0.001831099805527
             825.23495   0.013950098518422
             188.04696    0.06844509273075
               52.9645    0.23271427528445
              16.89757    0.47019295006289
             5.7996353    0.35852086192309
 s    3 1.00
             15.539616   -0.11077750382508
             3.5999336   -0.14802630511126
             1.0137618     1.1307670390447
 s    1 1.00
             0.2700058                   1
 p    3 1.00
             15.539616   0.070874299543311
             3.5999336    0.33975279781076
             1.0137618    0.72715859531445
 p    1 1.00
             0.2700058                   1

2 0
 s    3 1.00
             18.731137    0.03349459952309
             2.8253937    0.23472694665786
             0.6401217    0.81375731841339
 s    1 1.00
             0.1612778                   1

3 0
 s    3 1.00
             18.731137    0.03349459952309
             2.8253937    0.23472694665786
             0.6401217    0.81375731841339
 s    1 1.00
             0.1612778                   1

[5d]
[7f]
[9g]

[MO]
 Sym= A
 Ene=               0
 Spin= Alpha
 Occup=    1.00000
   1    -2.9855933566042e-14
   2    6.5423365997443e-14
   3    1.3170887980519e-13
   4      0.64622412089087
   5    -3.1597778429247e-14
   6    2.0939961161956e-13
   7      0.50502032483335
   8    -1.4400432809387e-14
   9    1.4364759390374e-13
  10    -7.3428446294123e-14
  11    -4.8323137150518e-14
  12    -4.081988306714e-14
  13    -3.04669067779e-14
 Sym= A
 Ene=               1
 Spin= Alpha
 Occup=    1.00000
   1    2.4968150456692e-13
   2    -3.062546369549e-13
   3    -2.3447856338685e-13
   4    3.9391841769593e-14
   5      0.51677794293709
   6    3.3332711062193e-13
   7    3.0623645534207e-14
   8      0.23365583464216
   9    2.0105645367339e-13
  10      0.26763986173806
  11      0.14942017009274
  12     -0.26763986173842
  13     -0.14942017009281
 Sym= A
 Ene=               2
 Spin= Alpha
 Occup=    1.00000
   1    -0.078375979699545
   2       0.1765108460484
   3      0.34970325611741
   4    -2.4459723920874e-13
   5    -2.1778057053693e-13
   6      0.55260163995921
   7    -1.9115974878019e-13
   8    -9.8982518664876e-14
   9      0.37947995517663
  10     -0.14973782902161
  11     -0.10331537036231
  12     -0.14973782902139
  13     -0.10331537036219
 Sym= A
 Ene=               3
 Spin= Alpha
 Occup=    1.00000
   1     -0.14425121791384
   2      0.47443958304224
   3       0.4646386906136
   4    2.0443981312631e-15
   5    4.1426878833843e-13
   6     -0.12391406989199
   7    1.5998701757265e-15
   8    1.8858273150618e-13
   9    -0.049066497970799
  10      0.14374306431755
  11    -0.0051748400761973
  12      0.14374306431712
  13    -0.0051748400764342
 Sym= A
 Ene=               4
 Spin= Alpha
 Occup=    1.00000
   1       1.0075359411464
   2    -0.005136282903723
   3     -0.04586615684834
   4    3.2941668982627e-16
   5    -8.5661402077727e-14
   6    0.0058090027164982
   7    2.5656816929488e-16
   8    -3.88249982013e-14
   9    0.0057317348882524
  10    -0.0097213304251626
  11    0.0035644656212438
  12    -0.0097213304250739
  13    0.0035644656212932
 Sym= A
 Ene=               5
 Spin= Alpha
 Occup=    0.00000
   1    -3.9576621118965e-14
   2    6.0931005503823e-14
   3    5.1152673371992e-13
   4    3.9777082598594e-15
   5      0.44810029916977
   6    -1.4764628852014e-13
   7    -4.2526115576976e-15
   8      0.72121480950702
   9    -1.870800156313e-13
  10     -0.11404267551422
  11      -1.2529182692788
  12      0.11404267551413
  13       1.2529182692779
 Sym= A
 Ene=               6
 Spin= Alpha
 Occup=    0.00000
   1    -2.6951113130844e-12
   2    4.2493355116971e-12
   3    3.5226778072324e-11
   4     -0.95835311898027
   5    9.8884116641083e-13
   6    -1.1922848457409e-11
   7       1.0397118767166
   8    -2.8879104920051e-12
   9    -1.044396016744e-11
  10    3.4483931622119e-14
  11    -3.0619058824676e-11
  12    -2.7101398564643e-12
  13    -3.1183058071585e-11
 Sym= A
 Ene=               7
 Spin= Alpha
 Occup=    0.00000
   1    -0.074462201891713
   2      0.10693404732398
   3      0.87714545230556
   4    2.5008119944348e-11
   5      0.21582014722572
   6     -0.36539513015958
   7    -2.7131265377128e-11
   8      -0.8167412461468
   9     -0.29936342509091
  10      0.24078158485541
  11     -0.64554349705945
  12     -0.78388875986062
  13     -0.55420956868895
 Sym= A
 Ene=               8
 Spin= Alpha
 Occup=    0.00000
   1    -0.035220825323175
   2      0.66397175521441
   3     -0.72943504587016
   4    1.0555556951979e-11
   5     -0.76342820322287
   6    -0.014023346626878
   7    -1.1451318780333e-11
   8       1.2146811794657
   9      0.20661642830615
  10      0.57148110116936
  11      -1.0729612633013
  12       0.3479090840761
  13      0.57084926905031
 Sym= A
 Ene=               9
 Spin= Alpha
 Occup=    0.00000
   1     0.030376114844544
   2     -0.80825231777858
   3       1.1050980768683
   4    -9.1570121857059e-12
   5      -0.5727875947264
   6      0.03971610752134
   7    9.9347465120257e-12
   8      0.54437295674874
   9     -0.39072192787865
  10    -0.052499415279898
  11       -0.704485232609
  12      -1.0636523323591
  13      0.95992495209309
 Sym= A
 Ene=              10
 Spin= Alpha
 Occup=    0.00000
   1     0.082206417540373
   2      -0.6015405451524
   3      0.22614897176331
   4    9.9884433200442e-13
   5    -0.012695540180786
   6     -0.66938783180621
   7    -1.0836778136778e-12
   8    -0.038200425233799
   9       1.1287684057526
  10      0.55860214969506
  11     -0.10705949640204
  12      0.42066714439809
  13     -0.01112211607465
 Sym= A
 Ene=              11
 Spin= Alpha
 Occup=    0.00000
   1     0.044084829694051
   2      0.20179223790778
   3     -0.91860830621242
   4    -1.0995230468442e-11
   5      0.15901918348546
   6      0.47084155846045
   7    1.1928882444344e-11
   8     -0.81468725831722
   9      0.16887354260261
  10       1.2089553789511
  11    0.0089880708696133
  12    -0.035332183258389
  13      0.32637476971275
 Sym= A
 Ene=              12
 Spin= Alpha
 Occup=    0.00000
   1     0.040697675843465
   2      -1.2499983476546
   3       2.3690889053856
   4    8.1535447921919e-12
   5     0.015093122241194
   6      0.49901046014178
   7    -8.8458395694521e-12
   8      0.11021405227346
   9     -0.92618440139274
  10     0.028654728706004
  11     -0.99522348540556
  12       0.3415631132291
  13       -1.185397313045
