[Molden Format]
made by pyscf v[2.11.0]
[Atoms] (AU)
O   1   8     0.00000000000000     0.00000000000000     0.22166487441148
H   2   1     0.00000000000000     1.43090062152066    -0.88665949764593
H   3   1     0.00000000000000    -1.43090062152066    -0.88665949764593
[GTO]
1 0
 s    6 1.00
             5484.6717   0.001831099805527
             825.23495   0.013950098518422
             188.04696    0.06844509273075
               52.9645    0.23271427528445
              16.89757    0.47019295006289
             5.7996353    0.35852086192309
 s    3 1.00
             15.539616   -0.11077750382508
             3.5999336   -0.14802630511126
             1.0137618     1.1307670390447
 s    1 1.00
             0.2700058                   1
 p    3 1.00
             15.539616   0.070874299543311
             3.5999336    0.33975279781076
             1.0137618    0.72715859531445
 p    1 1.00
             0.2700058                   1

2 0
 s    3 1.00
             18.731137    0.03349459952309
             2.8253937    0.23472694665786
             0.6401217    0.81375731841339
 s    1 1.00
             0.1612778                   1

3 0
 s    3 1.00
             18.731137    0.03349459952309
             2.8253937    0.23472694665786
             0.6401217    0.81375731841339
 s    1 1.00
             0.1612778                   1

[5d]
[7f]
[9g]

[MO]
 Sym= A
 Ene=               0
 Spin= Alpha
 Occup=    1.00000
   1    1.9269397771459e-14
   2    -4.3330019129641e-14
   3    -8.07253526804e-14
   4      0.64622425938488
   5    1.6464697904844e-14
   6    -1.1792703592876e-13
   7      0.50502017458197
   8    7.1681958302981e-15
   9    -8.1479607221326e-14
  10    3.9467427493853e-14
  11    2.7203117880738e-14
  12    2.2042532313879e-14
  13    1.765134140249e-14
 Sym= A
 Ene=               1
 Spin= Alpha
 Occup=    1.00000
   1      0.15870282332108
   2     -0.50491331225856
   3     -0.56749542485096
   4    -6.4227250772829e-14
   5    1.2854253013557e-13
   6     -0.11603327745604
   7    -5.0199829901808e-14
   8    5.8173055696605e-14
   9     -0.11248414509631
  10    -0.068796197145253
  11     0.047468751410008
  12    -0.068796197145386
  13     0.047468751409938
 Sym= A
 Ene=               2
 Spin= Alpha
 Occup=    1.00000
   1    0.0082040727359261
   2    -0.017610787191377
   3     0.060967956571514
   4    4.2837236812976e-14
   5      0.45059727355504
   6      0.27136889875064
   7    3.3445905825246e-14
   8      0.20373287014233
   9      0.17907419312223
  10      0.13738871362065
  11     0.085358203820861
  12     -0.32934072930487
  13     -0.17521115756383
 Sym= A
 Ene=               3
 Spin= Alpha
 Occup=    1.00000
   1     0.041596759866946
   2     0.030942222082044
   3     -0.11131626374103
   4    -1.1830617528327e-13
   5      0.25263194445407
   6     -0.48309163250283
   7    -9.2475486917272e-14
   8       0.1142249058171
   9     -0.31869256255729
  10      0.30123695219825
  11      0.15328387959909
  12     0.039560342905956
  13    0.0071930168816852
 Sym= A
 Ene=               4
 Spin= Alpha
 Occup=    1.00000
   1       1.0075195799974
   2    -0.0083960393303535
   3     -0.04610479853081
   4    2.2979695722203e-15
   5    -0.014099381706396
   6     0.016575722315019
   7    1.7963207270586e-15
   8    -0.0063748887773186
   9     0.012654556543476
  10     -0.02137261377541
  11    -0.0021583374875628
  12    -0.0067684495790706
  13    0.0059949894470835
 Sym= A
 Ene=               5
 Spin= Alpha
 Occup=    0.00000
   1     0.088058911461182
   2     -0.16070421889284
   3      -1.0756186277941
   4    -5.0483152244271e-14
   5     2.52514759819e-15
   6      0.31062383041332
   7    5.4695547774144e-14
   8    4.0679389087119e-14
   9      0.41582154521898
  10     0.096776679158257
  11      0.92821589386072
  12      0.09677667915825
  13      0.92821589386084
 Sym= A
 Ene=               6
 Spin= Alpha
 Occup=    0.00000
   1    -4.3800222527541e-13
   2    8.9372740890418e-12
   3    -1.1617380980092e-11
   4      0.95835302559279
   5    1.4004949770685e-12
   6    6.6969384189172e-12
   7      -1.0397119496984
   8    1.7770975369504e-12
   9    -4.3569815046235e-12
  10    3.5091058380101e-12
  11    -4.1371462144669e-12
  12    3.0995018234143e-12
  13    4.2972155388717e-12
 Sym= A
 Ene=               7
 Spin= Alpha
 Occup=    0.00000
   1     0.022670108092835
   2     -0.46231746566008
   3      0.67284685391083
   4    4.7952442335969e-12
   5     -0.15921822858744
   6    -0.071185013946648
   7    -5.2022793067902e-12
   8     -0.78997079493506
   9    -0.033027167345721
  10     -0.25075115166495
  11       1.3558254898091
  12       0.1467678640144
  13      -1.6553710617899
 Sym= A
 Ene=               8
 Spin= Alpha
 Occup=    0.00000
   1      0.07414794311059
   2       -1.582035468248
   3       2.3514700413901
   4    5.622668050681e-12
   5     -0.14717187937946
   6     -0.17192286026491
   7    -6.1000664978895e-12
   8      0.40846705344628
   9     -0.22204739111145
  10     -0.06740383076676
  11      -1.0983312407099
  12     -0.33994185079136
  13     0.029066942365106
 Sym= A
 Ene=               9
 Spin= Alpha
 Occup=    0.00000
   1    -0.0085479316014404
   2      0.24002028237431
   3     -0.54854612594834
   4    3.5932538638101e-12
   5      0.39550487863699
   6     -0.60072668229946
   7    -3.898508199919e-12
   8      -1.2335912128642
   9      0.65403539235513
  10       0.3444208506038
  11      0.62400430756076
  12     -0.74969033752571
  13      0.19397680989216
 Sym= A
 Ene=              10
 Spin= Alpha
 Occup=    0.00000
   1     -0.04257717310647
   2     -0.22031169040169
   3      0.94825462232829
   4    -2.2609237947232e-12
   5     -0.15114199663958
   6      0.57758913701025
   7    2.4529133871664e-12
   8     -0.40382072732355
   9        -1.24068285682
  10     -0.18709380569054
  11     -0.20000841137678
  12      -1.1135480647014
  13    -0.082274364496747
 Sym= A
 Ene=              11
 Spin= Alpha
 Occup=    0.00000
   1     -0.02870864476631
   2      0.47083310116776
   3     -0.76708950348947
   4    2.6014207764697e-12
   5     -0.90760983805835
   6     -0.41395738070812
   7    -2.8223262057436e-12
   8       1.0474281690602
   9      0.42082017781271
  10    -0.082940516385641
  11    -0.098634798625996
  12     -0.43321755846014
  13      0.98869125190627
 Sym= A
 Ene=              12
 Spin= Alpha
 Occup=    0.00000
   1    -0.039864816372107
   2    -0.020044257265118
   3      0.32041007740494
   4    2.3145843958213e-12
   5      0.36595458017098
   6     -0.23899043570057
   7    -2.5111294005089e-12
   8      0.25200727216487
   9     -0.27924393817178
  10      -1.3919284604907
  11      0.53925472816131
  12     -0.19644231707928
  13      0.10723243063619
