[Molden Format]
made by pyscf v[2.11.0]
[Atoms] (AU)
O   1   8     0.00000000000000     0.00000000000000     0.22166487441148
H   2   1     0.00000000000000     1.43090062152066    -0.88665949764593
H   3   1     0.00000000000000    -1.43090062152066    -0.88665949764593
[GTO]
1 0
 s    6 1.00
             5484.6717   0.001831099805527
             825.23495   0.013950098518422
             188.04696    0.06844509273075
               52.9645    0.23271427528445
              16.89757    0.47019295006289
             5.7996353    0.35852086192309
 s    3 1.00
             15.539616   -0.11077750382508
             3.5999336   -0.14802630511126
             1.0137618     1.1307670390447
 s    1 1.00
             0.2700058                   1
 p    3 1.00
             15.539616   0.070874299543311
             3.5999336    0.33975279781076
             1.0137618    0.72715859531445
 p    1 1.00
             0.2700058                   1

2 0
 s    3 1.00
             18.731137    0.03349459952309
             2.8253937    0.23472694665786
             0.6401217    0.81375731841339
 s    1 1.00
             0.1612778                   1

3 0
 s    3 1.00
             18.731137    0.03349459952309
             2.8253937    0.23472694665786
             0.6401217    0.81375731841339
 s    1 1.00
             0.1612778                   1

[5d]
[7f]
[9g]

[MO]
 Sym= A
 Ene=               0
 Spin= Alpha
 Occup=    1.00000
   1     0.095699098199545
   2     -0.21253451589349
   3     -0.38471599861895
   4    -1.50248746578e-13
   5    -2.4186217583734e-14
   6     -0.54137597564121
   7    -1.1742356278496e-13
   8    -1.0681738375291e-14
   9     -0.37453286330943
  10      0.13816425490198
  11      0.10342793294672
  12        0.138164254902
  13      0.10342793294675
 Sym= A
 Ene=               1
 Spin= Alpha
 Occup=    1.00000
   1    -1.7602424700476e-15
   2    5.6549480693074e-15
   3    -7.2036731666443e-15
   4    -1.6750059940522e-14
   5      0.51677809053634
   6    -3.5636695602442e-14
   7    -1.3126973967516e-14
   8       0.2336558381301
   9    -1.8167975094208e-14
  10      0.26763982437045
  11      0.14942005304012
  12     -0.26763982437042
  13     -0.14942005304011
 Sym= A
 Ene=               2
 Spin= Alpha
 Occup=    1.00000
   1    2.9211633104616e-14
   2    -7.4778533570696e-14
   3    -1.1357303366377e-13
   4      0.64622425938488
   5    1.3472433740262e-14
   6    -1.1663639137578e-13
   7      0.50502017458197
   8    5.8152747136996e-15
   9    -8.282618213832e-14
  10    3.073889330202e-14
  11    2.7853782225891e-14
  12    1.6413390569769e-14
  13    2.0032358788415e-14
 Sym= A
 Ene=               3
 Spin= Alpha
 Occup=    1.00000
   1      0.20675800841698
   2     -0.45861627280261
   3     -0.43829506132287
   4    -3.5553342877485e-14
   5    1.8393945715405e-14
   6      0.16632620834732
   7    -2.7789502179655e-14
   8    8.2369387541637e-15
   9     0.078504712571731
  10      -0.1552050995656
  11    -0.0025865972515836
  12     -0.15520509956562
  13    -0.0025865972515946
 Sym= A
 Ene=               4
 Spin= Alpha
 Occup=    1.00000
   1       0.9950742163318
   2     0.027851412527585
   3    -0.013272211673736
   4    2.8698930639923e-15
   5    -3.3623460738989e-16
   6    -0.0021739517394723
   7    2.2426186552683e-15
   8    -1.654389552396e-16
   9    0.0027351739146442
  10    7.4218858983866e-05
  11    0.0030873024016632
  12    7.4218858984262e-05
  13    0.0030873024016634
 Sym= A
 Ene=               5
 Spin= Alpha
 Occup=    0.00000
   1     0.089626028017746
   2     -0.17632475775144
   3      -1.0662542161042
   4    -5.8986368283688e-15
   5    5.2945508891598e-14
   6      0.28309150454962
   7    6.3206079963456e-15
   8    1.0477598811533e-13
   9       0.4481481202694
  10     0.097965603780583
  11      0.93214567329374
  12     0.097965603780587
  13      0.93214567329413
 Sym= A
 Ene=               6
 Spin= Alpha
 Occup=    0.00000
   1    8.4351923869302e-15
   2    -1.5284148702722e-14
   3    -1.3310013319147e-13
   4    8.9384938543123e-16
   5     -0.58246570704696
   6    1.8624184401119e-14
   7    -9.2503146885305e-16
   8     -0.59816746453823
   9    3.4983577687932e-14
  10      0.27086613515618
  11       1.0019842981711
  12     -0.27086613515629
  13      -1.0019842981708
 Sym= A
 Ene=               7
 Spin= Alpha
 Occup=    0.00000
   1    1.3328568006757e-14
   2    -1.4465601971277e-13
   3    1.141473624404e-13
   4      0.95835302559279
   5    -4.6161304416458e-14
   6    -1.8073303512429e-13
   7      -1.0397119496984
   8    1.3746199104011e-13
   9    2.1441390273729e-13
  10    -5.5796618114069e-14
  11    8.2383113195973e-15
  12    9.3163806673579e-14
  13    7.7194094291675e-15
 Sym= A
 Ene=               8
 Spin= Alpha
 Occup=    0.00000
   1    -0.074951049812288
   2       1.1529607962064
   3      -1.7151745574092
   4    -1.8529031221445e-14
   5    -8.587412214211e-14
   6     -0.57265970774295
   7    1.9965530558955e-14
   8    1.6599368773281e-13
   9      0.56193252216736
  10      -0.5051762218469
  11      0.86279938035591
  12      -0.5051762218471
  13      0.86279938035645
 Sym= A
 Ene=               9
 Spin= Alpha
 Occup=    0.00000
   1    -0.066379140518567
   2      0.72814440945224
   3     -0.62978987244676
   4    2.0574566542601e-13
   5    -2.8644788145031e-12
   6      0.80042004287334
   7    -2.2306236307124e-13
   8    6.3534313871631e-12
   9     -0.97473632575947
  10     -0.16928394504219
  11     0.059343541247514
  12     -0.16928394503944
  13     0.059343541252434
 Sym= A
 Ene=              10
 Spin= Alpha
 Occup=    0.00000
   1    0.0017726520775172
   2       0.6483606117594
   3      -1.2738265086544
   4    -4.9366230068616e-14
   5       0.1469482748874
   6    -0.043528247477108
   7    5.3659796756359e-14
   8      0.20398436235789
   9      0.59046951466595
  10     -0.17626226176859
  11      0.90064949449514
  12       1.3221081243582
  13     -0.65386837533906
 Sym= A
 Ene=              11
 Spin= Alpha
 Occup=    0.00000
   1    9.7804631876045e-05
   2     0.035772767600033
   3    -0.070282337995429
   4    -6.1498056393335e-14
   5     -0.90436463887723
   6    -0.0024016355321293
   7    6.6768372171455e-14
   8       1.7849943891829
   9     0.032578673570688
  10    -0.066461195936682
  11      -1.0329719159821
  12      0.12968230623878
  13       1.0465878628237
 Sym= A
 Ene=              12
 Spin= Alpha
 Occup=    0.00000
   1    -0.0023809464467975
   2     -0.87084877764045
   3       1.7109464052366
   4    -4.9768423185189e-14
   5     0.072255768124345
   6     0.058465181905978
   7    5.4030911067365e-14
   8      0.22519365067662
   9     -0.79309206289303
  10      -1.3313330378147
  11      0.37023673072381
  12     -0.20771552667349
  13     -0.70170201726887
