[Molden Format]
made by pyscf v[2.11.0]
[Atoms] (AU)
O   1   8     0.00000000000000     0.00000000000000     0.22166487441148
H   2   1     0.00000000000000     1.43090062152066    -0.88665949764593
H   3   1     0.00000000000000    -1.43090062152066    -0.88665949764593
[GTO]
1 0
 s    6 1.00
             5484.6717   0.001831099805527
             825.23495   0.013950098518422
             188.04696    0.06844509273075
               52.9645    0.23271427528445
              16.89757    0.47019295006289
             5.7996353    0.35852086192309
 s    3 1.00
             15.539616   -0.11077750382508
             3.5999336   -0.14802630511126
             1.0137618     1.1307670390447
 s    1 1.00
             0.2700058                   1
 p    3 1.00
             15.539616   0.070874299543311
             3.5999336    0.33975279781076
             1.0137618    0.72715859531445
 p    1 1.00
             0.2700058                   1

2 0
 s    3 1.00
             18.731137    0.03349459952309
             2.8253937    0.23472694665786
             0.6401217    0.81375731841339
 s    1 1.00
             0.1612778                   1

3 0
 s    3 1.00
             18.731137    0.03349459952309
             2.8253937    0.23472694665786
             0.6401217    0.81375731841339
 s    1 1.00
             0.1612778                   1

[5d]
[7f]
[9g]

[MO]
 Sym= A
 Ene=               0
 Spin= Alpha
 Occup=    1.00000
   1    6.1060572132028e-16
   2    -1.511987377455e-15
   3    -2.6294654327014e-15
   4      0.64622425938488
   5    1.3108182891311e-15
   6    -3.2101647285198e-15
   7      0.50502017458197
   8    3.165267921288e-16
   9    -2.340759665849e-15
  10    1.6487447149116e-15
  11    1.0853062421474e-15
  12    -7.9735492552024e-17
  13    2.9664699896884e-16
 Sym= A
 Ene=               1
 Spin= Alpha
 Occup=    1.00000
   1    -3.7448868366417e-13
   2    3.9695748135685e-13
   3    4.4058867830329e-13
   4    -1.5533163170455e-15
   5      0.51677809053634
   6    4.5862776382912e-14
   7    -1.2508148689545e-15
   8       0.2336558381301
   9    6.2854103573266e-14
  10      0.26763982437051
  11      0.14942005304009
  12     -0.26763982437037
  13     -0.14942005304014
 Sym= A
 Ene=               2
 Spin= Alpha
 Occup=    1.00000
   1     0.091898690136239
   2     -0.20852918396913
   3     -0.38080173452008
   4    -3.9983098342266e-15
   5    1.6023952237007e-13
   6     -0.54281893164414
   7    -3.1297278817224e-15
   8    7.2705161768861e-14
   9     -0.37521649566181
  10      0.13952964165452
  11      0.10344043413377
  12      0.13952964165435
  13      0.10344043413369
 Sym= A
 Ene=               3
 Spin= Alpha
 Occup=    1.00000
   1      0.28427771540275
   2     -0.45695336271993
   3     -0.44143182039989
   4    -2.1837500770246e-16
   5    3.8639409447615e-13
   6      0.16079637250803
   7    -1.7549364077872e-16
   8    1.7462585471089e-13
   9     0.075120313756746
  10     -0.15348592968508
  11    -0.0014119599098665
  12     -0.15348592968548
  13    -0.0014119599100902
 Sym= A
 Ene=               4
 Spin= Alpha
 Occup=    1.00000
   1      0.97612534990427
   2     0.063124567621017
   3     0.020324834588298
   4    6.3398627490375e-17
   5    7.0917230101279e-14
   6    -0.015786535015935
   7    4.9727062418123e-17
   8    3.2057632701237e-14
   9    -0.0038544280292759
  10     0.012310087760266
  11    0.0034120654350654
  12     0.012310087760192
  13    0.0034120654350244
 Sym= A
 Ene=               5
 Spin= Alpha
 Occup=    0.00000
   1    4.5849083595444e-15
   2    -2.1261857284295e-14
   3    -2.665678299509e-14
   4    4.6385969489555e-18
   5      -0.4481003471185
   6    -9.1112076375784e-15
   7    5.1742580007768e-17
   8     -0.72121463779139
   9    3.2144998749899e-14
  10      0.11404282406421
  11       1.2529181079681
  12     -0.11404282406421
  13      -1.2529181079681
 Sym= A
 Ene=               6
 Spin= Alpha
 Occup=    0.00000
   1    -1.3689369046452e-13
   2    1.6687789659904e-13
   3    1.8847515976945e-12
   4      0.95835302559279
   5    -4.324312325731e-13
   6    -1.9867506954512e-13
   7      -1.0397119496984
   8    6.5628849161467e-13
   9    -9.8812536589219e-13
  10    -4.1670042079669e-14
  11    -2.0444449252515e-12
  12    -2.4132978046814e-13
  13    -1.0759183692535e-12
 Sym= A
 Ene=               7
 Spin= Alpha
 Occup=    0.00000
   1     0.020772642816269
   2      0.72499323187635
   3      -1.9282194885238
   4    1.065861653142e-12
   5      0.22558329388881
   6      0.59147149477794
   7    -1.1563337154028e-12
   8     -0.42543171186116
   9      0.11673450587441
  10      0.27738636896478
  11       1.0359364892905
  12       0.1905962354342
  13      0.62833790036695
 Sym= A
 Ene=               8
 Spin= Alpha
 Occup=    0.00000
   1    -0.035476814013024
   2     -0.42421404054036
   3       1.4815300493574
   4    -6.5045977180881e-13
   5     -0.25166391719404
   6      0.78147979523492
   7    7.0586735906245e-13
   8      0.47004921641513
   9      -1.4610692595783
  10     -0.36921417960575
  11     -0.87915824787648
  12     -0.28288918242444
  13     -0.41906905549777
 Sym= A
 Ene=               9
 Spin= Alpha
 Occup=    0.00000
   1    0.0083887748030777
   2     0.090930344733671
   3     -0.32796843651665
   4    1.9038889950886e-13
   5    -0.016092478238873
   6    -0.019629671819255
   7    -2.0646186406561e-13
   8      0.85077195348338
   9      0.16955795283209
  10     -0.88208350386967
  11      0.61801168928031
  12       1.0096302864122
  13     -0.31664494665989
 Sym= A
 Ene=              10
 Spin= Alpha
 Occup=    0.00000
   1    -0.062119753780261
   2      0.32318571069183
   3     -0.20908574710143
   4    1.7326552593852e-13
   5     -0.03103447659538
   6     -0.26723148923092
   7    -1.8808490013719e-13
   8      0.05371604676578
   9     -0.26365775808489
  10     -0.99198103520406
  11      0.59685763667917
  12     -0.99110106126331
  13      0.65858583183535
 Sym= A
 Ene=              11
 Spin= Alpha
 Occup=    0.00000
   1     0.029197118114378
   2      0.10529062031142
   3     -0.67579660849059
   4    8.0201823223002e-14
   5     -0.92525458659938
   6    -0.042608952779695
   7    -8.7033999608259e-14
   8       1.3985733905598
   9      0.41185145732334
  10         0.37377827213
  11     -0.68088186514417
  12    -0.066307398639179
  13       1.3978153446832
 Sym= A
 Ene=              12
 Spin= Alpha
 Occup=    0.00000
   1      0.10767396040182
   2      -1.4970824565567
   3       1.5840850349162
   4      8.6186606243e-13
   5      0.10780428587663
   6      0.14109615276887
   7    -9.3510103987007e-13
   8     -0.17758452935989
   9     -0.17084840665982
  10      -0.2160624270509
  11      0.13573217677655
  12     -0.19841533389793
  13    -0.089274918159695
