[Molden Format]
made by pyscf v[2.11.0]
[Atoms] (AU)
O   1   8     0.00000000000000     0.00000000000000     0.22166487441148
H   2   1     0.00000000000000     1.43090062152066    -0.88665949764593
H   3   1     0.00000000000000    -1.43090062152066    -0.88665949764593
[GTO]
1 0
 s    6 1.00
             5484.6717   0.001831099805527
             825.23495   0.013950098518422
             188.04696    0.06844509273075
               52.9645    0.23271427528445
              16.89757    0.47019295006289
             5.7996353    0.35852086192309
 s    3 1.00
             15.539616   -0.11077750382508
             3.5999336   -0.14802630511126
             1.0137618     1.1307670390447
 s    1 1.00
             0.2700058                   1
 p    3 1.00
             15.539616   0.070874299543311
             3.5999336    0.33975279781076
             1.0137618    0.72715859531445
 p    1 1.00
             0.2700058                   1

2 0
 s    3 1.00
             18.731137    0.03349459952309
             2.8253937    0.23472694665786
             0.6401217    0.81375731841339
 s    1 1.00
             0.1612778                   1

3 0
 s    3 1.00
             18.731137    0.03349459952309
             2.8253937    0.23472694665786
             0.6401217    0.81375731841339
 s    1 1.00
             0.1612778                   1

[5d]
[7f]
[9g]

[MO]
 Sym= A
 Ene=               0
 Spin= Alpha
 Occup=    1.00000
   1    -8.0275818029638e-14
   2    1.7014799970334e-13
   3    3.7566467015723e-13
   4      0.62260813310258
   5    -2.0760188181473e-13
   6    5.7749581997953e-13
   7      0.53028088653954
   8    -1.0309603711283e-13
   9    4.2552890999838e-13
  10    -2.5331189405238e-13
  11    -1.8323492906436e-13
  12    -5.5826658548641e-14
  13    -4.8545780819041e-14
 Sym= A
 Ene=               1
 Spin= Alpha
 Occup=    1.00000
   1    1.7796354926711e-16
   2    -5.0479826388444e-14
   3    -5.2632031728552e-14
   4    2.523702648234e-13
   5      0.51285332626347
   6    1.0904140100388e-15
   7    2.1476027713819e-13
   8      0.25432452303213
   9    -6.2848463807208e-15
  10      0.24332246289395
  11      0.16654363445745
  12     -0.24332246289398
  13     -0.16654363445745
 Sym= A
 Ene=               2
 Spin= Alpha
 Occup=    1.00000
   1     0.073084582405179
   2     -0.15240830721995
   3     -0.34504088812784
   4    6.6528140203334e-13
   5    -6.0664153465524e-15
   6     -0.54182875047861
   7    5.6666729314596e-13
   8    -9.422302854568e-15
   9     -0.39864173538247
  10      0.14667990917539
  11      0.10878093589446
  12       0.1466799091754
  13      0.10878093589445
 Sym= A
 Ene=               3
 Spin= Alpha
 Occup=    1.00000
   1     -0.13998303322796
   2      -0.4465134972461
   3     -0.43999934856047
   4    9.2764461477481e-15
   5    -5.5051298968205e-14
   6     0.093630145509754
   7    7.946998050592e-15
   8    -2.7573727697684e-14
   9     0.031960335246394
  10     -0.13050497525867
  11    -0.0063218259450929
  12     -0.13050497525862
  13    -0.0063218259450561
 Sym= A
 Ene=               4
 Spin= Alpha
 Occup=    1.00000
   1       1.0080194653103
   2     -0.13300232238955
   3     -0.17405712150156
   4    2.6410632947718e-15
   5    -7.4009269576676e-15
   6     0.033050564487434
   7    2.266215473532e-15
   8    -3.7500486458771e-15
   9     0.014524903284051
  10    -0.047580630861703
  11    0.00080175257226449
  12    -0.047580630861696
  13    0.00080175257226971
 Sym= A
 Ene=               5
 Spin= Alpha
 Occup=    1.00000
   1    8.6014127285807e-14
   2    -1.2783130790457e-13
   3    -1.1048359349449e-12
   4    3.0591266503783e-14
   5     -0.46202919918212
   6    2.4602423686566e-13
   7    -3.2283012715859e-14
   8     -0.70145719008729
   9    4.5767757748344e-13
  10      0.11124949183414
  11       1.2413929937176
  12     -0.11124949183402
  13      -1.2413929937157
 Sym= A
 Ene=               6
 Spin= Alpha
 Occup=    0.00000
   1    3.1893191214029e-13
   2    -5.1677345637774e-13
   3    -3.7356021433858e-12
   4      0.97386109259735
   5    -4.7473359244777e-13
   6    1.3846196382179e-12
   7      -1.0270581757872
   8    7.1076296133921e-13
   9    1.2807015281095e-12
  10    8.8982345876344e-13
  11    2.2368387448299e-12
  12    5.2383368247786e-13
  13    3.5055636654492e-12
 Sym= A
 Ene=               7
 Spin= Alpha
 Occup=    0.00000
   1    -0.090858303979797
   2      0.15162756117183
   3        1.117737029555
   4    3.2296850087238e-12
   5    -0.016136528638815
   6     -0.28129280842986
   7    -3.4059103998592e-12
   8     0.013620579461347
   9     -0.45280113232511
  10    -0.061707567699945
  11      -0.9776386135575
  12    -0.095689568811933
  13     -0.92729542899335
 Sym= A
 Ene=               8
 Spin= Alpha
 Occup=    0.00000
   1     0.071497807184638
   2     -0.10361604494508
   3     -0.48667499253017
   4    -2.7384463640043e-13
   5    -0.011636976910407
   6     -0.23210374351407
   7    2.8902205428091e-13
   8     -0.12897423248856
   9      0.98433786441313
  10       1.1698736462698
  11     -0.33313740975638
  12      0.81441881785353
  13     -0.12774718726125
 Sym= A
 Ene=               9
 Spin= Alpha
 Occup=    0.00000
   1    -0.066846483071238
   2       1.5290972122141
   3      -2.2751503937089
   4    -3.1354473244265e-13
   5     -0.11005731822466
   6      0.36029925983138
   7    3.3067309562977e-13
   8      0.12876271119269
   9      0.11786552225286
  10      0.44929517539167
  11      0.24524575477411
  12      0.30304205131785
  13      0.54491402293116
 Sym= A
 Ene=              10
 Spin= Alpha
 Occup=    0.00000
   1    0.0021199692964722
   2     -0.30633542483778
   3      0.62596931880593
   4    -2.396426122202e-13
   5    -0.044835751906817
   6      0.27080761302282
   7    2.5263377859372e-13
   8      -0.6927133827983
   9     -0.47920893855683
  10      0.77410287781165
  11     -0.68618667673491
  12       -1.062267692224
  13      0.34367310468733
 Sym= A
 Ene=              11
 Spin= Alpha
 Occup=    0.00000
   1    -0.0072304540180275
   2       0.1405611790382
   3     -0.18112696055467
   4    4.8023791099234e-13
   5      0.97952137378811
   6     0.065875411108784
   7    -5.0658881578846e-13
   8      -1.5982807766848
   9     -0.02846481106482
  10    -0.059538806223583
  11       1.0590982706789
  12      0.16370936331288
  13      -1.0570046244069
 Sym= A
 Ene=              12
 Spin= Alpha
 Occup=    0.00000
   1     0.034830176406898
   2     -0.77533930396474
   3       1.3930048017367
   4    -4.1775963429296e-13
   5    -0.023359895529683
   6      0.85492742373416
   7    4.4052035008752e-13
   8      0.25777898117784
   9      -1.0066928415652
  10    -0.010807288974594
  11     -0.60746714619546
  12      0.50763457748319
  13      -0.8245989819012
