[Molden Format]
made by pyscf v[2.11.0]
[Atoms] (AU)
O   1   8     0.00000000000000     0.00000000000000     0.22166487441148
H   2   1     0.00000000000000     1.43090062152066    -0.88665949764593
H   3   1     0.00000000000000    -1.43090062152066    -0.88665949764593
[GTO]
1 0
 s    6 1.00
             5484.6717   0.001831099805527
             825.23495   0.013950098518422
             188.04696    0.06844509273075
               52.9645    0.23271427528445
              16.89757    0.47019295006289
             5.7996353    0.35852086192309
 s    3 1.00
             15.539616   -0.11077750382508
             3.5999336   -0.14802630511126
             1.0137618     1.1307670390447
 s    1 1.00
             0.2700058                   1
 p    3 1.00
             15.539616   0.070874299543311
             3.5999336    0.33975279781076
             1.0137618    0.72715859531445
 p    1 1.00
             0.2700058                   1

2 0
 s    3 1.00
             18.731137    0.03349459952309
             2.8253937    0.23472694665786
             0.6401217    0.81375731841339
 s    1 1.00
             0.1612778                   1

3 0
 s    3 1.00
             18.731137    0.03349459952309
             2.8253937    0.23472694665786
             0.6401217    0.81375731841339
 s    1 1.00
             0.1612778                   1

[5d]
[7f]
[9g]

[MO]
 Sym= A
 Ene=               0
 Spin= Alpha
 Occup=    1.00000
   1    3.3221605175614e-14
   2    -7.053326000032e-14
   3    -1.4007168387089e-13
   4      0.62260813310258
   5    4.2306911698548e-13
   6    -1.9085933528825e-13
   7      0.53028088653954
   8    2.0952368076659e-13
   9    -1.4147700840416e-13
  10    2.4867840344931e-13
  11    1.7661817018877e-13
  12    -1.5315915426553e-13
  13    -9.8693428186936e-14
 Sym= A
 Ene=               1
 Spin= Alpha
 Occup=    1.00000
   1    -2.8988277105914e-15
   2    -1.2633729829364e-16
   3    9.9771907517381e-15
   4    -5.1377731931164e-13
   5      0.51285332626347
   6    2.7991857227864e-14
   7    -4.3761949637794e-13
   8      0.25432452303213
   9    1.6804558191711e-14
  10      0.24332246289395
  11      0.16654363445744
  12     -0.24332246289398
  13     -0.16654363445746
 Sym= A
 Ene=               2
 Spin= Alpha
 Occup=    1.00000
   1       0.1178476602756
   2      -0.2501008415981
   3     -0.43983125025175
   4    -2.223015800199e-13
   5    2.4689254157086e-14
   6     -0.50716615704448
   7    -1.8940676664403e-13
   8    6.3172535887268e-15
   9      -0.3814313240677
  10      0.11288077161338
  11      0.10493136410991
  12      0.11288077161336
  13      0.10493136410989
 Sym= A
 Ene=               3
 Spin= Alpha
 Occup=    1.00000
   1      0.22829876840027
   2     -0.41938982418852
   3     -0.38664701411769
   4    2.7683825531336e-14
   5    -1.5960279799331e-14
   6      0.21480890458375
   7    2.3597899953276e-14
   8    -6.9202182532168e-15
   9      0.12105787639518
  10     -0.16742794715084
  11    -0.029112187459403
  12     -0.16742794715083
  13     -0.02911218745939
 Sym= A
 Ene=               4
 Spin= Alpha
 Occup=    1.00000
   1      0.98743680786972
   2     0.043057606675825
   3    0.0010394878311456
   4    -8.1967071827867e-16
   5      2.1741685063e-15
   6    -0.0087728254620836
   7    -6.9876346183914e-16
   8    1.0606260827091e-15
   9    -0.0016746987393985
  10    0.0060228455889098
  11    0.0039736220133771
  12    0.0060228455889077
  13    0.0039736220133756
 Sym= A
 Ene=               5
 Spin= Alpha
 Occup=    1.00000
   1    -3.691286621863e-14
   2    8.9230457711251e-14
   3    3.898346884867e-13
   4    -6.9410633482492e-14
   5     -0.46202919918208
   6    -1.1672257772943e-13
   7    7.2966495349353e-14
   8     -0.70145719008736
   9    -1.6221450468721e-13
  10      0.11124949183404
  11       1.2413929937163
  12      -0.1112494918341
  13       -1.241392993717
 Sym= A
 Ene=               6
 Spin= Alpha
 Occup=    0.00000
   1    3.9348701525949e-13
   2    -1.3700386153587e-13
   3    -5.8471534761674e-12
   4     -0.97386109259735
   5    -5.3503460205529e-13
   6    1.4214333612404e-12
   7       1.0270581757872
   8    -4.4846019763631e-13
   9    2.1788371275784e-12
  10    2.5236628574615e-12
  11    2.6636824077853e-12
  12    -9.8786364223044e-13
  13    5.8033620705902e-12
 Sym= A
 Ene=               7
 Spin= Alpha
 Occup=    0.00000
   1     -0.08533794448023
   2      0.18342533321577
   3       1.0109838634705
   4    -4.0222326405738e-12
   5     0.012044610172967
   6     -0.23358157925341
   7    4.2420628295536e-12
   8     -0.10446459029406
   9     -0.40784522215346
  10      0.14241314708584
  11      -1.0160883503511
  12    -0.057066940141822
  13     -0.93878995899428
 Sym= A
 Ene=               8
 Spin= Alpha
 Occup=    0.00000
   1     0.099900929649236
   2      -1.0687677298198
   3        1.156237230364
   4    9.3743755214176e-13
   5      0.18884089842482
   6      0.19056361539081
   7    -9.8867632647363e-13
   8     -0.56449913690287
   9      0.11893152936988
  10      0.93210472213124
  11     -0.53041542177294
  12      0.36385755506376
  13     -0.62606409016979
 Sym= A
 Ene=               9
 Spin= Alpha
 Occup=    0.00000
   1    -0.031907327162136
   2       0.8539620003923
   3      -1.2330448586395
   4    8.9156558540618e-13
   5     0.061911398579837
   6        0.797154237822
   7    -9.4023803042308e-13
   8     -0.18528776891986
   9     -0.44058148266029
  10      0.51849922499781
  11     0.046493791865218
  12      0.33168225506426
  13     0.015399769858644
 Sym= A
 Ene=              10
 Spin= Alpha
 Occup=    0.00000
   1    -0.022608890881271
   2      -0.3248796964792
   3      0.84864012284194
   4    1.253877799779e-12
   5    0.0071229006064927
   6      0.18080340456373
   7    -1.322398673283e-12
   8     -0.65191359714748
   9     -0.71056096530687
  10      0.13779609233802
  11     -0.37678690256968
  12      -1.3872969563666
  13      0.38783983257082
 Sym= A
 Ene=              11
 Spin= Alpha
 Occup=    0.00000
   1    -0.016495296691775
   2      0.19299345551755
   3      -0.2452244912271
   4    -7.2011231981593e-13
   5      0.96617277720144
   6     -0.10758109804581
   7    7.5952894062322e-13
   8      -1.4925096941417
   9     0.062575060959775
  10     -0.34277128981921
  11       1.2403313965902
  12     0.077701651088239
  13      -0.9492524094246
 Sym= A
 Ene=              12
 Spin= Alpha
 Occup=    0.00000
   1    -0.0064374107835112
   2       1.0191475153152
   3      -2.0899538830999
   4    1.365106511784e-12
   5    -0.036700425263283
   6      -0.5484499002295
   7    -1.439737542463e-12
   8     -0.34310752663891
   9        1.244313910218
  10      0.93954945328202
  11      0.30353391466968
  12    -0.029711833862887
  13      0.87375113801185
