[Molden Format]
made by pyscf v[2.11.0]
[Atoms] (AU)
O   1   8     0.00000000000000     0.00000000000000     0.22166487441148
H   2   1     0.00000000000000     1.43090062152066    -0.88665949764593
H   3   1     0.00000000000000    -1.43090062152066    -0.88665949764593
[GTO]
1 0
 s    6 1.00
             5484.6717   0.001831099805527
             825.23495   0.013950098518422
             188.04696    0.06844509273075
               52.9645    0.23271427528445
              16.89757    0.47019295006289
             5.7996353    0.35852086192309
 s    3 1.00
             15.539616   -0.11077750382508
             3.5999336   -0.14802630511126
             1.0137618     1.1307670390447
 s    1 1.00
             0.2700058                   1
 p    3 1.00
             15.539616   0.070874299543311
             3.5999336    0.33975279781076
             1.0137618    0.72715859531445
 p    1 1.00
             0.2700058                   1

2 0
 s    3 1.00
             18.731137    0.03349459952309
             2.8253937    0.23472694665786
             0.6401217    0.81375731841339
 s    1 1.00
             0.1612778                   1

3 0
 s    3 1.00
             18.731137    0.03349459952309
             2.8253937    0.23472694665786
             0.6401217    0.81375731841339
 s    1 1.00
             0.1612778                   1

[5d]
[7f]
[9g]

[MO]
 Sym= A
 Ene=               0
 Spin= Alpha
 Occup=    1.00000
   1     0.052442353679263
   2     -0.11515438501623
   3      -0.3064076835091
   4    -4.6785755518909e-14
   5    -1.0693414158781e-11
   6     -0.54798800094095
   7    -3.9920947282256e-14
   8    -5.3088318828325e-12
   9     -0.40016891588195
  10      0.15723017075957
  11       0.1088768104437
  12      0.15723017076972
  13      0.10887681045064
 Sym= A
 Ene=               1
 Spin= Alpha
 Occup=    1.00000
   1    1.0353264140067e-12
   2    -2.2871325084705e-12
   3    -6.2693904978054e-12
   4    3.7645261556811e-13
   5      0.51285332626347
   6    -1.1442444444512e-11
   7    3.2059725986589e-13
   8      0.25432452303213
   9    -8.3499759639148e-12
  10      0.24332246289727
  11      0.16654363445972
  12     -0.24332246289066
  13     -0.16654363445518
 Sym= A
 Ene=               2
 Spin= Alpha
 Occup=    1.00000
   1       0.2249023932932
   2     -0.47550346405869
   3     -0.49894374963439
   4    7.343329300362e-14
   5    1.2201266934319e-13
   6      0.05599836757727
   7    6.2541497963799e-14
   8    5.9710546216833e-14
   9    0.0032946728894891
  10     -0.12683613774819
  11    0.0029973438807624
  12      -0.1268361377483
  13    0.0029973438806839
 Sym= A
 Ene=               3
 Spin= Alpha
 Occup=    1.00000
   1      0.99383527873236
   2     0.030465330678051
   3    -0.010862271698431
   4    5.8299847200354e-12
   5    2.345577640925e-15
   6    -0.0032668730843381
   7    4.9654496738921e-12
   8    1.1658253679929e-15
   9     0.001285661556903
  10    0.0013146553119415
  11    0.0032796922191671
  12    0.0013146553119392
  13    0.0032796922191656
 Sym= A
 Ene=               4
 Spin= Alpha
 Occup=    1.00000
   1    -9.3286547235469e-12
   2    -2.3782683994579e-13
   3    1.372615627545e-13
   4      0.62260813310258
   5    -3.1018634313873e-13
   6    -1.7406865420203e-14
   7      0.53028088653954
   8    -1.5409850048253e-13
   9    -4.240435631195e-14
  10    -1.3251555498446e-13
  11    -1.2314496498655e-13
  12    1.6143071223084e-13
  13    7.7777178571668e-14
 Sym= A
 Ene=               5
 Spin= Alpha
 Occup=    1.00000
   1    -2.2691877046387e-12
   2    2.5783389674016e-12
   3    2.7701762371009e-11
   4    -1.6306801686946e-14
   5     -0.43949108804028
   6    -7.0407526697461e-12
   7    1.6956883428093e-14
   8     -0.89860444172898
   9    -1.3221247454201e-11
  10      0.35735384294507
  11       1.0779918716474
  12     -0.35735384296165
  13      -1.0779918716838
 Sym= A
 Ene=               6
 Spin= Alpha
 Occup=    0.00000
   1     -0.10363744774322
   2       0.1142660522816
   3       1.2593724345955
   4    1.2350164554877e-14
   5    9.7009794072671e-12
   6      -0.3258777399567
   7    -1.2905735975031e-14
   8    1.9781051773753e-11
   9     -0.60700894770419
  10     -0.40749311530974
  11     -0.80447283315933
  12     -0.40749311529412
  13     -0.80447283311164
 Sym= A
 Ene=               7
 Spin= Alpha
 Occup=    0.00000
   1    -1.1339644272339e-14
   2    -1.9636797404523e-13
   3    1.4442666087362e-13
   4    -7.4769401543917e-15
   5    -0.099179450184165
   6    -2.6726669795748e-13
   7    7.8782426158987e-15
   8     -0.24462468981651
   9    -1.4966482410067e-13
  10       0.9180621776296
  11      -1.0162386413222
  12     -0.91806217763165
  13       1.0162386413237
 Sym= A
 Ene=               8
 Spin= Alpha
 Occup=    0.00000
   1    2.1179325429042e-14
   2    -2.5270082615582e-13
   3    3.2884682447843e-13
   4    -5.8007316148344e-13
   5      0.99247593031272
   6    -1.3114172680728e-14
   7    6.1183982455496e-13
   8      -1.6609978902913
   9    7.4998381426437e-14
  10     0.042182774303802
  11      0.88107405621507
  12     -0.04218277430342
  13     -0.88107405621549
 Sym= A
 Ene=               9
 Spin= Alpha
 Occup=    0.00000
   1     0.021429504142017
   2      0.22348801822945
   3     -0.39601056034948
   4      0.14359300075004
   5    9.9553969326348e-14
   6     0.079181685673952
   7     -0.15143675676867
   8    5.2752008823007e-13
   9      0.44174201649088
  10       1.0058109558366
  11     -0.56470943788905
  12       1.0058109558351
  13     -0.56470943788525
 Sym= A
 Ene=              10
 Spin= Alpha
 Occup=    0.00000
   1    -0.062436844323765
   2       0.7238258949378
   3     -0.66732895132842
   4      0.25489134702746
   5    2.7506700863443e-13
   6      0.79631692863081
   7     -0.26881476618369
   8    -4.8051000201433e-13
   9     -0.89441258300932
  10    -0.097310858036095
  11      0.04558025155207
  12     -0.09731085803634
  13     0.045580251551881
 Sym= A
 Ene=              11
 Spin= Alpha
 Occup=    0.00000
   1    -0.0080843424137107
   2     0.088466206217841
   3    -0.003999369496362
   4     -0.92494803916461
   5    -5.2730399944855e-13
   6      0.27767235158749
   7      0.97547325077816
   8    1.0247360699296e-12
   9     -0.26997678877147
  10      0.11757046031118
  11     -0.15052070087759
  12      0.11757046031096
  13     -0.15052070087588
 Sym= A
 Ene=              12
 Spin= Alpha
 Occup=    0.00000
   1    -0.062784350861309
   2       1.5785631249629
   3      -2.6152280309773
   4    -0.085369806527659
   5    5.1092177249034e-14
   6     -0.49769664954634
   7     0.090033125284584
   8    -1.7320748444753e-13
   9      0.99763064345555
  10      0.12741215383391
  11      0.81707478257992
  12      0.12741215383403
  13      0.81707478257942
