[Molden Format]
made by pyscf v[2.11.0]
[Atoms] (AU)
O   1   8     0.00000000000000     0.00000000000000     0.22166487441148
H   2   1     0.00000000000000     1.43090062152066    -0.88665949764593
H   3   1     0.00000000000000    -1.43090062152066    -0.88665949764593
[GTO]
1 0
 s    6 1.00
             5484.6717   0.001831099805527
             825.23495   0.013950098518422
             188.04696    0.06844509273075
               52.9645    0.23271427528445
              16.89757    0.47019295006289
             5.7996353    0.35852086192309
 s    3 1.00
             15.539616   -0.11077750382508
             3.5999336   -0.14802630511126
             1.0137618     1.1307670390447
 s    1 1.00
             0.2700058                   1
 p    3 1.00
             15.539616   0.070874299543311
             3.5999336    0.33975279781076
             1.0137618    0.72715859531445
 p    1 1.00
             0.2700058                   1

2 0
 s    3 1.00
             18.731137    0.03349459952309
             2.8253937    0.23472694665786
             0.6401217    0.81375731841339
 s    1 1.00
             0.1612778                   1

3 0
 s    3 1.00
             18.731137    0.03349459952309
             2.8253937    0.23472694665786
             0.6401217    0.81375731841339
 s    1 1.00
             0.1612778                   1

[5d]
[7f]
[9g]

[MO]
 Sym= A
 Ene=               0
 Spin= Alpha
 Occup=    1.00000
   1    -1.186131718775e-12
   2    2.7210766293454e-12
   3    7.0393334765635e-12
   4     -0.62719138811384
   5    8.1404731411765e-14
   6    -1.5534533584044e-12
   7     -0.52543408751454
   8    3.6893784047539e-14
   9    -2.0904286468243e-12
  10    3.2704100818079e-13
  11    -4.1200204202092e-12
  12    2.4729590532068e-13
  13    -4.188926340669e-12
 Sym= A
 Ene=               1
 Spin= Alpha
 Occup=    1.00000
   1      0.19200769210184
   2     -0.44626291883688
   3      -1.1213601515145
   4    -3.8960671866542e-12
   5    -1.1326489704293e-13
   6      0.23941666435411
   7    -3.2638334910433e-12
   8    -4.9391164834118e-14
   9       0.3216343262581
  10    -0.048656423450156
  11      0.64850348435561
  12    -0.048656423450046
  13      0.64850348435571
 Sym= A
 Ene=               2
 Spin= Alpha
 Occup=    1.00000
   1    -0.045013645874916
   2     -0.19251653837751
   3      0.48636453735064
   4    5.1991848333182e-14
   5     -0.23675578837924
   6    -0.085633606268346
   7    4.359646045237e-14
   8     -0.10731856061169
   9     -0.27503540542552
  10     -0.24578558669485
  11     -0.73757200100599
  12    -0.014747062977716
  13     -0.53791987398844
 Sym= A
 Ene=               3
 Spin= Alpha
 Occup=    1.00000
   1    -0.055568120435243
   2     -0.11515218711964
   3      0.22803315168209
   4    1.4812690171862e-13
   5      0.43931849855936
   6     -0.10091199310696
   7    1.2387076907478e-13
   8      0.19913780878699
   9     -0.18646478563574
  10       0.1594395499718
  11     -0.14549275903853
  12      -0.2692701261194
  13     -0.51596257215682
 Sym= A
 Ene=               4
 Spin= Alpha
 Occup=    1.00000
   1     -0.48116072796583
   2      0.11725241988102
   3       0.2861068462754
   4    -4.0864205202876e-14
   5      0.03268641822798
   6      0.50871467564493
   7    -3.4300778416946e-14
   8     0.014816361533519
   9      0.37627642598045
  10     -0.10667181193133
  11    -0.041172118998413
  12     -0.13856890667478
  13    -0.068736019203236
 Sym= A
 Ene=               5
 Spin= Alpha
 Occup=    1.00000
   1      0.88073916160033
   2      0.03514676262235
   3      0.16784816759748
   4    -5.6368072607347e-15
   5     0.033474477001862
   6      0.22196590815538
   7    -4.7693064264956e-15
   8     0.015173579128359
   9      0.13449281931488
  10    -0.064563921016097
  11     -0.10236284306757
  12    -0.097230044204288
  13     -0.13059129982452
 Sym= A
 Ene=               6
 Spin= Alpha
 Occup=    0.00000
   1    -0.092195606809687
   2       1.1280084425108
   3      -1.4315862105418
   4    -5.8705158029165e-12
   5    1.2631506300008e-12
   6     -0.35127007844375
   7    6.2251758227592e-12
   8    1.2375511888674e-12
   9      0.14882122113614
  10     -0.67280155112219
  11      0.76850254640042
  12     -0.67280155112081
  13       0.7685025464041
 Sym= A
 Ene=               7
 Spin= Alpha
 Occup=    0.00000
   1    -5.6740586214429e-13
   2    6.9755335210444e-12
   3    -8.8284257824116e-12
   4      0.97091569034403
   5    4.6848854431375e-13
   6    -1.9521807341021e-12
   7      -1.0295461790314
   8    1.5911508176825e-12
   9    7.4968864393437e-13
  10    -4.228342509111e-12
  11    2.4826951233573e-12
  12    -3.826272078511e-12
  13    6.7918057728994e-12
 Sym= A
 Ene=               8
 Spin= Alpha
 Occup=    0.00000
   1    0.0052529480140679
   2    -0.026358702270447
   3    -0.019543012421331
   4    1.5197712367957e-12
   5     -0.29015356402256
   6      -0.1064752085334
   7    -1.6114683635261e-12
   8     -0.92312226106878
   9      0.13927784923952
  10     0.032730715588545
  11       1.4522459881465
  12    0.0080291312760902
  13      -1.4082626922843
 Sym= A
 Ene=               9
 Spin= Alpha
 Occup=    0.00000
   1    -0.024634299143617
   2     -0.12380991005111
   3      0.58440597672984
   4    -2.0358167262166e-14
   5      0.76592789590137
   6      0.57030159642525
   7    2.1729109809516e-14
   8     -0.98882861932279
   9     -0.92106059104272
  10     -0.55759809066397
  11      0.61376754441892
  12    -0.0068944451510151
  13     -0.97159229065024
 Sym= A
 Ene=              10
 Spin= Alpha
 Occup=    0.00000
   1    -0.0065795972222742
   2      0.80197439204848
   3      -1.5069516335076
   4    6.3284777534526e-14
   5      0.40893091262274
   6    -0.087212857790763
   7    -6.7134093869007e-14
   8      -1.1268070174355
   9      0.65815264966875
  10       1.1288567093163
  11       0.2570324091323
  12    -0.019599422893733
  13      0.15890706050339
 Sym= A
 Ene=              11
 Spin= Alpha
 Occup=    0.00000
   1     0.007231715870192
   2      -0.8561897431411
   3       1.6059819155703
   4    1.8717963614627e-13
   5     -0.14817390357437
   6     0.088607886815135
   7    -1.9835107526541e-13
   8      -0.4652366009741
   9     -0.69602189143782
  10      0.13455597178874
  11     -0.60183182157549
  12      -1.3156231720734
  13      0.16014704812934
 Sym= A
 Ene=              12
 Spin= Alpha
 Occup=    0.00000
   1    -0.041439200393268
   2      0.63071418954306
   3     -0.68781726945693
   4    -5.7788563320455e-15
   5     -0.58288795477928
   6      0.71868126554046
   7    6.0584055137674e-15
   8      0.56853085845635
   9     -0.64095803914987
  10      0.35881750976179
  11     -0.40819740189325
  12    -0.042417530382245
  13      0.32019901272264
