[Molden Format]
made by pyscf v[2.11.0]
[Atoms] (AU)
O   1   8     0.00000000000000     0.00000000000000     0.22166487441148
H   2   1     0.00000000000000     1.43090062152066    -0.88665949764593
H   3   1     0.00000000000000    -1.43090062152066    -0.88665949764593
[GTO]
1 0
 s    6 1.00
             5484.6717   0.001831099805527
             825.23495   0.013950098518422
             188.04696    0.06844509273075
               52.9645    0.23271427528445
              16.89757    0.47019295006289
             5.7996353    0.35852086192309
 s    3 1.00
             15.539616   -0.11077750382508
             3.5999336   -0.14802630511126
             1.0137618     1.1307670390447
 s    1 1.00
             0.2700058                   1
 p    3 1.00
             15.539616   0.070874299543311
             3.5999336    0.33975279781076
             1.0137618    0.72715859531445
 p    1 1.00
             0.2700058                   1

2 0
 s    3 1.00
             18.731137    0.03349459952309
             2.8253937    0.23472694665786
             0.6401217    0.81375731841339
 s    1 1.00
             0.1612778                   1

3 0
 s    3 1.00
             18.731137    0.03349459952309
             2.8253937    0.23472694665786
             0.6401217    0.81375731841339
 s    1 1.00
             0.1612778                   1

[5d]
[7f]
[9g]

[MO]
 Sym= A
 Ene=               0
 Spin= Alpha
 Occup=    1.00000
   1    -2.8504440517261e-14
   2    5.5306830735744e-14
   3    1.4674304074332e-13
   4     -0.62719138811384
   5    -4.1577815301947e-14
   6    1.7793786292676e-13
   7     -0.52543408751454
   8    -1.8852730046258e-14
   9    1.2295963894909e-13
  10    -6.720274457546e-14
  11    -7.1266686824719e-14
  12    -2.6935127872433e-14
  13    -3.6463518668265e-14
 Sym= A
 Ene=               1
 Spin= Alpha
 Occup=    1.00000
   1    5.0951434396666e-14
   2    -9.839195409357e-14
   3    -3.1846363360065e-13
   4    -5.1819833884462e-14
   5      0.50124144786186
   6    7.9466904303262e-14
   7    -4.3634751042976e-14
   8      0.22720673936506
   9    1.0883195682941e-13
  10      0.24456864377553
  11      0.21134419120256
  12     -0.24456864377555
  13     -0.21134419120214
 Sym= A
 Ene=               2
 Spin= Alpha
 Occup=    1.00000
   1    -0.060421711221574
   2     0.079524176729677
   3       1.1071138291285
   4    4.3116413546441e-14
   5    9.5978849688255e-14
   6     -0.14812396786249
   7    3.5984640852878e-14
   8    4.1004889584432e-14
   9     -0.38876260902159
  10     -0.11250243589889
  11     -0.96538215164506
  12     -0.11250243589899
  13     -0.96538215164514
 Sym= A
 Ene=               3
 Spin= Alpha
 Occup=    1.00000
   1     0.041791875105934
   2     -0.13967726643433
   3     -0.15857708765111
   4    1.7195867488323e-13
   5    -6.6965977292077e-14
   6      0.57737486476351
   7    1.4405456217143e-13
   8    -2.2805880968293e-14
   9      0.44717374771488
  10     -0.17153840866575
  11      0.10817778881238
  12     -0.17153840866569
  13      0.10817778881244
 Sym= A
 Ene=               4
 Spin= Alpha
 Occup=    1.00000
   1       0.1264912601274
   2     -0.48792961298343
   3     -0.63080778819818
   4    -1.1282856672831e-13
   5    -6.7378110380659e-14
   6     -0.16601064520977
   7    -9.4447640265822e-14
   8    -3.4868338385009e-14
   9     -0.14977331766738
  10    -0.042468061298997
  11     0.095762726263768
  12    -0.042468061298932
  13     0.095762726263821
 Sym= A
 Ene=               5
 Spin= Alpha
 Occup=    1.00000
   1       1.0138050760193
   2    -0.023399160190971
   3    -0.085218053764909
   4    -8.1065688264677e-15
   5    -8.4170208034203e-15
   6    -0.0058473076354745
   7    -6.7838399190619e-15
   8    -4.043456863368e-15
   9    -0.0013130268139205
  10    -0.0068385775805098
  11     0.020215445628725
  12    -0.0068385775805017
  13     0.020215445628732
 Sym= A
 Ene=               6
 Spin= Alpha
 Occup=    0.00000
   1    -4.9284184541825e-16
   2    7.050166734367e-15
   3    -9.3656267978832e-15
   4    3.0178596749328e-15
   5     -0.43562098493704
   6    -2.137177311981e-15
   7    -3.1330096509631e-15
   8     -0.74733935067283
   9    4.3376484894808e-15
  10     0.062958729033194
  11       1.2970170698399
  12    -0.062958729033197
  13      -1.2970170698399
 Sym= A
 Ene=               7
 Spin= Alpha
 Occup=    0.00000
   1    6.1974550706751e-14
   2    -3.9918594052663e-13
   3    2.9171764456009e-14
   4      0.97091569034403
   5    3.1961735528185e-12
   6    -8.5108251474064e-13
   7      -1.0295461790314
   8    -1.9084097114843e-12
   9    1.1971635957418e-12
  10    -3.5620528134762e-12
  11    4.8534688323125e-12
  12    4.2155712604868e-12
  13    -4.7442792540038e-12
 Sym= A
 Ene=               8
 Spin= Alpha
 Occup=    0.00000
   1     0.017136447332757
   2      0.67211457251725
   3      -1.4248508329577
   4    1.4096963703692e-12
   5     0.050443497881971
   6      0.10661496501485
   7    -1.4949733528621e-12
   8     -0.50696880998769
   9      0.65550375366173
  10       1.3847089567384
  11     -0.17595567766543
  12      0.43294086266436
  13      0.15467715191306
 Sym= A
 Ene=               9
 Spin= Alpha
 Occup=    0.00000
   1    -0.038223006587644
   2     -0.08569156068132
   3      0.66893558215641
   4    2.7738537339232e-12
   5    -0.097279339162013
   6      0.73739060550372
   7    -2.9412617646834e-12
   8     -0.28244477140682
   9      -1.2059483781997
  10     0.097488727121415
  11     -0.50874161871369
  12     -0.90700046793961
  13      0.12832652805194
 Sym= A
 Ene=              10
 Spin= Alpha
 Occup=    0.00000
   1     0.017156478901402
   2     -0.10829433827619
   3      0.19625941885581
   4    -1.2819848481735e-12
   5      -0.1774689269001
   6      0.63322170695783
   7    1.3592536586356e-12
   8      0.83723254459033
   9     -0.46868379564339
  10     -0.16554913564556
  11      -0.2886319377116
  12       1.0500884995515
  13     -0.49454726029283
 Sym= A
 Ene=              11
 Spin= Alpha
 Occup=    0.00000
   1    -0.064133578857708
   2       1.0274296214951
   3      -1.3876144356817
   4    -2.6450867400724e-12
   5      0.73192229508955
   6      0.10003605700172
   7    2.8049363589474e-12
   8     -0.92159977640812
   9    -0.015755970482762
  10     -0.46381021302962
  11       1.2706410211202
  12      0.22752633156781
  13     -0.44070892727597
 Sym= A
 Ene=              12
 Spin= Alpha
 Occup=    0.00000
   1     0.069174789123137
   2      -1.2393670074075
   3       1.8091044185899
   4    -1.8206129149327e-12
   5      0.65634904766633
   6      0.16075805367917
   7    1.930595202432e-12
   8      -1.0925613135479
   9     -0.33827188214081
  10      0.11139328659791
  11      0.03672570789669
  12      0.13159070353147
  13       -1.228727041448
