[Molden Format]
made by pyscf v[2.11.0]
[Atoms] (AU)
O   1   8     0.00000000000000     0.00000000000000     0.22166487441148
H   2   1     0.00000000000000     1.43090062152066    -0.88665949764593
H   3   1     0.00000000000000    -1.43090062152066    -0.88665949764593
[GTO]
1 0
 s    6 1.00
             5484.6717   0.001831099805527
             825.23495   0.013950098518422
             188.04696    0.06844509273075
               52.9645    0.23271427528445
              16.89757    0.47019295006289
             5.7996353    0.35852086192309
 s    3 1.00
             15.539616   -0.11077750382508
             3.5999336   -0.14802630511126
             1.0137618     1.1307670390447
 s    1 1.00
             0.2700058                   1
 p    3 1.00
             15.539616   0.070874299543311
             3.5999336    0.33975279781076
             1.0137618    0.72715859531445
 p    1 1.00
             0.2700058                   1

2 0
 s    3 1.00
             18.731137    0.03349459952309
             2.8253937    0.23472694665786
             0.6401217    0.81375731841339
 s    1 1.00
             0.1612778                   1

3 0
 s    3 1.00
             18.731137    0.03349459952309
             2.8253937    0.23472694665786
             0.6401217    0.81375731841339
 s    1 1.00
             0.1612778                   1

[5d]
[7f]
[9g]

[MO]
 Sym= A
 Ene=               0
 Spin= Alpha
 Occup=    1.00000
   1    -7.4409456358964e-13
   2    1.7682075219928e-12
   3    4.2061658595281e-12
   4     -0.62719138811384
   5    -6.0166272771249e-14
   6    -1.0936074067175e-12
   7     -0.52543408751454
   8    -2.7278654976145e-14
   9    -1.3248420456846e-12
  10    2.379346932469e-13
  11    -2.4012443686646e-12
  12    2.9634188660521e-13
  13    -2.3507658706794e-12
 Sym= A
 Ene=               1
 Spin= Alpha
 Occup=    1.00000
   1      0.19200769210183
   2     -0.44626291883686
   3      -1.1213601515145
   4    -2.4733029989878e-12
   5    8.4395645897414e-14
   6      0.23941666435416
   7    -2.0719025799014e-12
   8    4.0205989699242e-14
   9      0.32163432625815
  10    -0.048656423450063
  11      0.64850348435573
  12    -0.048656423450146
  13      0.64850348435566
 Sym= A
 Ene=               2
 Spin= Alpha
 Occup=    1.00000
   1     0.063391310318129
   2     -0.23855856908069
   3      0.47906918884232
   4    -9.0904811566717e-14
   5    -0.054209888350103
   6     -0.20297753735941
   7    -7.6193356840412e-14
   8    -0.024572692513584
   9     -0.38520733391066
  10     -0.14516037638547
  11     -0.71939181164413
  12    -0.092259568084152
  13     -0.67367753539107
 Sym= A
 Ene=               3
 Spin= Alpha
 Occup=    1.00000
   1    -0.0038305494456977
   2      0.08429213089292
   3      0.40769133728284
   4    -2.2173940359549e-13
   5     0.055348492536274
   6      0.52651392194262
   7    -1.8585923846726e-13
   8     0.025088808141437
   9      0.33927177687937
  10     -0.13861508772939
  11     -0.18770862716299
  12     -0.19262700478996
  13     -0.23438306894846
 Sym= A
 Ene=               4
 Spin= Alpha
 Occup=    1.00000
   1    0.00053200366004802
   2    -0.035570386776315
   3    0.0072370100184269
   4    -6.1451813435591e-14
   5      0.49520647967103
   6      -0.0808987413303
   7    -5.1700145284156e-14
   8      0.22447116063218
   9    -0.079992721298671
  10      0.24711605785608
  11      0.15604169709499
  12     -0.23613199610527
  13     -0.26155749934291
 Sym= A
 Ene=               5
 Spin= Alpha
 Occup=    1.00000
   1        1.004140302386
   2    0.0050459895354467
   3    -0.052988940377503
   4    1.3072496506587e-14
   5    0.0033710421983794
   6    -0.024787768241032
   7    1.0954875394556e-14
   8    0.0015280530160122
   9    -0.014035439765591
  10    0.0051842657055886
  11     0.015677245288519
  12    0.0018946286570778
  13     0.012834502774049
 Sym= A
 Ene=               6
 Spin= Alpha
 Occup=    0.00000
   1    -0.092195606809682
   2       1.1280084425108
   3      -1.4315862105418
   4    -3.9536266668528e-12
   5    -4.4489582256921e-12
   6     -0.35127007844384
   7    4.1925318915835e-12
   8    -7.0754747685332e-12
   9      0.14882122113622
  10     -0.67280155112087
  11      0.76850254641483
  12     -0.67280155112215
  13      0.76850254638971
 Sym= A
 Ene=               7
 Spin= Alpha
 Occup=    0.00000
   1    -3.682315771336e-13
   2    4.1342432771713e-12
   3    -5.0139225795324e-12
   4      0.97091569034403
   5    4.0337463120324e-12
   6    -1.4548067556918e-12
   7      -1.0295461790314
   8    8.6840771468335e-12
   9    3.3872370018362e-13
  10    -3.790378764805e-12
  11    -1.086938874642e-11
  12    -2.2715127019703e-12
  13    1.6929430645051e-11
 Sym= A
 Ene=               8
 Spin= Alpha
 Occup=    0.00000
   1    -0.00077254001962945
   2     0.037525029054449
   3    -0.064139003230931
   4    1.0105782770686e-11
   5     -0.38808757441961
   6    0.0060068820831027
   7    -1.0715969080723e-11
   8     -0.83318733606305
   9     0.015950303395878
  10     0.094836740767026
  11        1.342451412913
  12    -0.050057683884086
  13      -1.3283083199937
 Sym= A
 Ene=               9
 Spin= Alpha
 Occup=    0.00000
   1      0.02104327581526
   2     -0.48087216452497
   3      0.66910361435924
   4    3.7055316782897e-16
   5     -0.25602508534814
   6     -0.31888868345766
   7    -3.4984782775151e-16
   8      -0.3529512249784
   9      0.15160484426785
  10      0.67009706790763
  11     -0.65187800745615
  12      -1.0730867617205
  13      0.59819487345518
 Sym= A
 Ene=              10
 Spin= Alpha
 Occup=    0.00000
   1    -0.024387567235253
   2       1.2161862106847
   3       -2.087665360838
   4    4.4882065108415e-14
   5     -0.27562364615213
   6      0.18056231225117
   7    -4.7747776526167e-14
   8      0.18265259780212
   9      0.53772972307093
  10        1.074942350924
  11     -0.21682597634617
  12      0.38631910190919
  13      0.68264926269039
 Sym= A
 Ene=              11
 Spin= Alpha
 Occup=    0.00000
   1    -0.029576839983855
   2      0.04312748367039
   3      0.31972069146967
   4    -2.7047176752767e-14
   5      0.62033101108804
   6      0.62971264064496
   7    2.8814450773946e-14
   8      -1.2472407360205
   9     -0.89820730717653
  10     0.097911413754306
  11      0.24157655804815
  12     -0.48628035568412
  13     -0.55371899441618
 Sym= A
 Ene=              12
 Spin= Alpha
 Occup=    0.00000
   1     0.023114478713592
   2      0.27646486275287
   3     -0.86758548404432
   4    4.7771863921793e-14
   5      0.72307207792756
   6      -0.5810974522942
   7    -5.064592231827e-14
   8       -1.109754974963
   9       1.0377964446437
  10       0.3317347206879
  11      0.86494384691211
  12      0.43980417546831
  13     -0.43100636675374
