[Molden Format]
made by pyscf v[2.11.0]
[Atoms] (AU)
O   1   8     0.00000000000000     0.00000000000000     0.22166487441148
H   2   1     0.00000000000000     1.43090062152066    -0.88665949764593
H   3   1     0.00000000000000    -1.43090062152066    -0.88665949764593
[GTO]
1 0
 s    6 1.00
             5484.6717   0.001831099805527
             825.23495   0.013950098518422
             188.04696    0.06844509273075
               52.9645    0.23271427528445
              16.89757    0.47019295006289
             5.7996353    0.35852086192309
 s    3 1.00
             15.539616   -0.11077750382508
             3.5999336   -0.14802630511126
             1.0137618     1.1307670390447
 s    1 1.00
             0.2700058                   1
 p    3 1.00
             15.539616   0.070874299543311
             3.5999336    0.33975279781076
             1.0137618    0.72715859531445
 p    1 1.00
             0.2700058                   1

2 0
 s    3 1.00
             18.731137    0.03349459952309
             2.8253937    0.23472694665786
             0.6401217    0.81375731841339
 s    1 1.00
             0.1612778                   1

3 0
 s    3 1.00
             18.731137    0.03349459952309
             2.8253937    0.23472694665786
             0.6401217    0.81375731841339
 s    1 1.00
             0.1612778                   1

[5d]
[7f]
[9g]

[MO]
 Sym= A
 Ene=               0
 Spin= Alpha
 Occup=    1.00000
   1    2.3461270694692e-14
   2    -4.1446589026647e-14
   3    -1.7487797812119e-13
   4     -0.62719138811384
   5    5.3273737449811e-14
   6    -8.6124937944685e-14
   7     -0.52543408751454
   8    2.4142341722782e-14
   9    -3.6817681835216e-14
  10    5.9920333538632e-14
  11    1.2993905779042e-13
  12    7.6269071936191e-15
  13    8.4755525780236e-14
 Sym= A
 Ene=               1
 Spin= Alpha
 Occup=    1.00000
   1    -4.5037575312176e-14
   2    1.6058550443122e-13
   3    4.4742834709446e-13
   4    6.6866112540402e-14
   5      0.50124144786186
   6    -9.5335711843713e-14
   7    5.5795252529121e-14
   8      0.22720673936506
   9    -1.379316330445e-13
  10      0.24456864377555
  11      0.21134419120208
  12     -0.24456864377554
  13     -0.21134419120263
 Sym= A
 Ene=               2
 Spin= Alpha
 Occup=    1.00000
   1    -0.093012460628638
   2     0.096829949480346
   3       1.1274967882644
   4    -6.8919924428372e-14
   5    -1.2875882238956e-13
   6     -0.17812993351209
   7    -5.787556489675e-14
   8    -6.1214255962836e-14
   9      -0.4111014524264
  10     -0.10135825674049
  11     -0.97177886675976
  12     -0.10135825674037
  13     -0.97177886675965
 Sym= A
 Ene=               3
 Spin= Alpha
 Occup=    1.00000
   1     -0.20859762632964
   2      0.40679462256306
   3      0.54036982844432
   4    -9.622520462189e-14
   5    -8.2094109355306e-14
   6      0.35877911964677
   7    -8.0686058630055e-14
   8    -3.0501554870746e-14
   9      0.29698601238717
  10    -0.020511361424544
  11    -0.053836040810417
  12    -0.020511361424464
  13    -0.053836040810343
 Sym= A
 Ene=               4
 Spin= Alpha
 Occup=    1.00000
   1     0.046786677523417
   2     -0.29909769477941
   3     -0.30449547465179
   4    -6.6536650005414e-14
   5    1.1283030404106e-13
   6      0.46971506577908
   7    -5.5727709072677e-14
   8    5.6486171296028e-14
   9      0.33976705738168
  10     -0.18142894880458
  11     0.076786886649374
  12     -0.18142894880469
  13     0.076786886649284
 Sym= A
 Ene=               5
 Spin= Alpha
 Occup=    1.00000
   1      0.99741908660641
   2     0.011803655448714
   3    -0.0078900311436876
   4    -8.7008431876926e-15
   5    -1.1950602132556e-14
   6     0.042558156893663
   7    -7.2926386254208e-15
   8    -4.8426300104239e-15
   9     0.029795109005072
  10    -0.017940191840635
  11    -0.0097767867165518
  12    -0.017940191840623
  13    -0.009776786716541
 Sym= A
 Ene=               6
 Spin= Alpha
 Occup=    0.00000
   1    8.7226762098382e-19
   2    2.2373152385258e-17
   3    2.4637664141991e-16
   4    -7.212818837883e-15
   5     -0.43562098493704
   6    -6.4877278522026e-17
   7    7.7154667682777e-15
   8     -0.74733935067285
   9    2.5566420619144e-15
  10     0.062958729033205
  11       1.2970170698399
  12    -0.062958729033203
  13      -1.2970170698399
 Sym= A
 Ene=               7
 Spin= Alpha
 Occup=    0.00000
   1    -1.8400291338449e-14
   2    2.7206305807315e-13
   3    -2.4145447339345e-13
   4      0.97091569034403
   5    -1.4601456945326e-12
   6    5.3851727007625e-13
   7      -1.0295461790314
   8    1.6148189640759e-13
   9    -4.936243474693e-13
  10    2.7192946798198e-12
  11    -2.6610081113096e-12
  12    -2.4161786955452e-12
  13    2.4138016212666e-12
 Sym= A
 Ene=               8
 Spin= Alpha
 Occup=    0.00000
   1     0.027864430912364
   2      0.11844598349534
   3     -0.60871339575715
   4    -1.666647521668e-12
   5     -0.42327156371148
   6     -0.59686377664185
   7    1.7672000432306e-12
   8      0.13887738505095
   9      0.97966206257066
  10      0.96385884049992
  11     -0.51808846223709
  12     -0.32409522317866
  13      0.87022649615795
 Sym= A
 Ene=               9
 Spin= Alpha
 Occup=    0.00000
   1    -0.058909751183025
   2     0.010928906612151
   3      0.50511522729607
   4    -1.1374136575702e-12
   5    -0.085959304917476
   6    0.0070658773052561
   7    1.2063093966552e-12
   8     -0.26300226378633
   9     -0.69923894902392
  10     -0.49527853768142
  11    -0.027686965165485
  12      -1.4131340906049
  13      0.54882761499061
 Sym= A
 Ene=              10
 Spin= Alpha
 Occup=    0.00000
   1    0.0077558370389679
   2    -0.067315809586269
   3      0.23514113230747
   4    -1.8709899581416e-12
   5     -0.18070614533671
   6      0.78750416180732
   7    1.9838938756104e-12
   8     -0.16159772535953
   9     -0.68952901208761
  10      0.90964730806339
  11     -0.82309483444061
  12     -0.13803351602368
  13    -0.0069444360663574
 Sym= A
 Ene=              11
 Spin= Alpha
 Occup=    0.00000
   1     -0.08007199455282
   2       1.6537295001411
   3      -2.4706429339437
   4    -1.9655135822269e-13
   5     -0.26208732715589
   6     0.021277704774563
   7    2.0837903053925e-13
   8      0.53540120326519
   9      0.37941912604832
  10     0.025831094916475
  11      0.42788567379788
  12      0.24117539073934
  13      0.83291958187186
 Sym= A
 Ene=              12
 Spin= Alpha
 Occup=    0.00000
   1    -0.015126321464667
   2      0.55583211689996
   3     -0.96409742145153
   4    2.6066024770556e-13
   5      0.84977353334654
   6     -0.12255574430614
   7    -2.763072765921e-13
   8      -1.6369366928867
   9      0.38762776307261
  10      0.42356543329317
  11      0.92693620799259
  12    -0.051510666362579
  13     -0.48647204658205
