[Molden Format]
made by pyscf v[2.11.0]
[Atoms] (AU)
O   1   8     0.00000000000000     0.00000000000000     0.22166487441148
H   2   1     0.00000000000000     1.43090062152066    -0.88665949764593
H   3   1     0.00000000000000    -1.43090062152066    -0.88665949764593
[GTO]
1 0
 s    6 1.00
             5484.6717   0.001831099805527
             825.23495   0.013950098518422
             188.04696    0.06844509273075
               52.9645    0.23271427528445
              16.89757    0.47019295006289
             5.7996353    0.35852086192309
 s    3 1.00
             15.539616   -0.11077750382508
             3.5999336   -0.14802630511126
             1.0137618     1.1307670390447
 s    1 1.00
             0.2700058                   1
 p    3 1.00
             15.539616   0.070874299543311
             3.5999336    0.33975279781076
             1.0137618    0.72715859531445
 p    1 1.00
             0.2700058                   1

2 0
 s    3 1.00
             18.731137    0.03349459952309
             2.8253937    0.23472694665786
             0.6401217    0.81375731841339
 s    1 1.00
             0.1612778                   1

3 0
 s    3 1.00
             18.731137    0.03349459952309
             2.8253937    0.23472694665786
             0.6401217    0.81375731841339
 s    1 1.00
             0.1612778                   1

[5d]
[7f]
[9g]

[MO]
 Sym= A
 Ene=               0
 Spin= Alpha
 Occup=    1.00000
   1     0.052442353679284
   2     -0.11515438501627
   3     -0.30640768350914
   4    1.4414079012683e-13
   5    -4.2097210676239e-12
   6     -0.54798800094095
   7    1.2280317245159e-13
   8    -2.0939765003433e-12
   9     -0.40016891588195
  10      0.15723017076264
  11       0.1088768104458
  12      0.15723017076663
  13      0.10887681044853
 Sym= A
 Ene=               1
 Spin= Alpha
 Occup=    1.00000
   1    3.9799983803725e-13
   2    -8.7778512195907e-13
   3    -2.4443489244885e-12
   4    2.355557174794e-12
   5      0.51285332626347
   6    -4.5089554361572e-12
   7    2.0060632811961e-12
   8      0.25432452303213
   9    -3.2904293045258e-12
  10      0.24332246289527
  11      0.16654363445834
  12     -0.24332246289266
  13     -0.16654363445656
 Sym= A
 Ene=               2
 Spin= Alpha
 Occup=    1.00000
   1      0.22490239329316
   2     -0.47550346405869
   3     -0.49894374963437
   4    5.7646629436908e-13
   5    7.1530355074798e-14
   6     0.055998367577312
   7    4.9103371119741e-13
   8    3.4679812357445e-14
   9    0.0032946728895193
  10     -0.12683613774822
  11    0.0029973438807374
  12     -0.12683613774829
  13    0.0029973438806915
 Sym= A
 Ene=               3
 Spin= Alpha
 Occup=    1.00000
   1      0.99383527873237
   2     0.030465330678032
   3     -0.01086227169845
   4    -4.3761175706232e-12
   5    4.659773406995e-16
   6    -0.0032668730843336
   7    -3.7271784887371e-12
   8    2.3236381454588e-16
   9    0.0012856615569047
  10    0.0013146553119347
  11    0.0032796922191662
  12    0.0013146553119343
  13    0.0032796922191659
 Sym= A
 Ene=               4
 Spin= Alpha
 Occup=    1.00000
   1    6.7649749178135e-12
   2    6.8114111802322e-13
   3    4.5624713417232e-13
   4      0.62260813310258
   5    -1.9400270042334e-12
   6    5.2117984113819e-14
   7      0.53028088653954
   8    -9.6220754206904e-13
   9    9.8730567688109e-14
  10    -8.3039201499949e-13
  11    -6.3460477738037e-13
  12    1.0109860295361e-12
  13    6.2525744292094e-13
 Sym= A
 Ene=               5
 Spin= Alpha
 Occup=    1.00000
   1    -8.9273400911798e-13
   2    1.0538802077089e-12
   3    1.0794234643276e-11
   4    -2.2095154884501e-14
   5     -0.43949108804032
   6    -2.7688669666875e-12
   7    2.3270931821469e-14
   8     -0.89860444172888
   9    -5.1789214695542e-12
  10      0.35735384295002
  11       1.0779918716585
  12     -0.35735384295659
  13      -1.0779918716727
 Sym= A
 Ene=               6
 Spin= Alpha
 Occup=    0.00000
   1     -0.10363744774323
   2      0.11426605228158
   3       1.2593724345955
   4    1.8879368306371e-14
   5    3.8572320461691e-12
   6     -0.32587773995673
   7    -1.9778660579742e-14
   8    7.7023891616704e-12
   9     -0.60700894770419
  10     -0.40749311530516
  11     -0.80447283314464
  12     -0.40749311529885
  13     -0.80447283312623
 Sym= A
 Ene=               7
 Spin= Alpha
 Occup=    0.00000
   1    1.9179030287584e-15
   2    -4.5162839129394e-13
   3    8.7211514002344e-13
   4    -3.8515762384724e-14
   5    -0.099179450184223
   6    1.062724658641e-13
   7    4.0612716430563e-14
   8     -0.24462468981652
   9    -4.4766714264336e-13
  10      0.91806217763031
  11       -1.016238641323
  12     -0.91806217763098
  13       1.0162386413228
 Sym= A
 Ene=               8
 Spin= Alpha
 Occup=    0.00000
   1    3.4964804131437e-14
   2    -7.0673173123159e-13
   3    1.0450784264203e-12
   4    5.2606780541677e-13
   5      0.99247593031269
   6    1.2734709207864e-13
   7    -5.5492546436566e-13
   8      -1.6609978902913
   9    -2.8748107150738e-13
  10     0.042182774303588
  11      0.88107405621505
  12    -0.042182774303724
  13     -0.88107405621556
 Sym= A
 Ene=               9
 Spin= Alpha
 Occup=    0.00000
   1       0.0241408109413
   2       0.1459662115393
   3     -0.25715400457658
   4      0.03502242421321
   5    8.8816878080874e-14
   6      0.12570307982889
   7    -0.036935521295063
   8    1.3750962015926e-13
   9      0.36860649018083
  10       1.0063272976935
  11     -0.61826586277259
  12       1.0063272976932
  13     -0.61826586277158
 Sym= A
 Ene=              10
 Spin= Alpha
 Occup=    0.00000
   1    -0.060903853576693
   2      0.68515270994798
   3     -0.59119919965292
   4     -0.15426460296963
   5    1.917381964732e-13
   6      0.83700395295216
   7      0.16269129439389
   8    -2.5602568197503e-13
   9     -0.94329810903454
  10    -0.078071528644593
  11    -0.00029175514898499
  12    -0.078071528644517
  13    -0.00029175514930385
 Sym= A
 Ene=              11
 Spin= Alpha
 Occup=    0.00000
   1    -0.0076062365549181
   2      0.02710741164071
   3     0.042496245844204
   4      0.95980624171623
   5    -5.4703210641657e-13
   6      0.15289566128201
   7      -1.0122355798167
   8    8.6658836055931e-13
   9     -0.21321714343988
  10    -0.057513025076551
  11    -0.015822411065689
  12    -0.057513025076545
  13    -0.015822411064776
 Sym= A
 Ene=              12
 Spin= Alpha
 Occup=    0.00000
   1    -0.063363250502926
   2       1.6068862582596
   3      -2.6503085359075
   4     0.046403320035605
   5    3.416882421101e-13
   6     -0.47480555514974
   7    -0.048938097628612
   8    -6.7662886717135e-13
   9      0.99605252253458
  10      0.17054093447772
  11      0.79293056405227
  12      0.17054093447718
  13       0.7929305640522
