[Molden Format]
made by pyscf v[2.11.0]
[Atoms] (AU)
O   1   8     0.00000000000000     0.00000000000000     0.22166487441148
H   2   1     0.00000000000000     1.43090062152066    -0.88665949764593
H   3   1     0.00000000000000    -1.43090062152066    -0.88665949764593
[GTO]
1 0
 s    6 1.00
             5484.6717   0.001831099805527
             825.23495   0.013950098518422
             188.04696    0.06844509273075
               52.9645    0.23271427528445
              16.89757    0.47019295006289
             5.7996353    0.35852086192309
 s    3 1.00
             15.539616   -0.11077750382508
             3.5999336   -0.14802630511126
             1.0137618     1.1307670390447
 s    1 1.00
             0.2700058                   1
 p    3 1.00
             15.539616   0.070874299543311
             3.5999336    0.33975279781076
             1.0137618    0.72715859531445
 p    1 1.00
             0.2700058                   1

2 0
 s    3 1.00
             18.731137    0.03349459952309
             2.8253937    0.23472694665786
             0.6401217    0.81375731841339
 s    1 1.00
             0.1612778                   1

3 0
 s    3 1.00
             18.731137    0.03349459952309
             2.8253937    0.23472694665786
             0.6401217    0.81375731841339
 s    1 1.00
             0.1612778                   1

[5d]
[7f]
[9g]

[MO]
 Sym= A
 Ene=               0
 Spin= Alpha
 Occup=    1.00000
   1    -2.5966433220699e-14
   2    5.4803327717066e-14
   3    1.1669623365645e-13
   4      0.62260813310258
   5    -1.5257669831269e-14
   6    1.7384610817109e-13
   7      0.53028088653954
   8    -7.7123329120881e-15
   9    1.2840971991718e-13
  10    -5.3184917992586e-14
  11    -3.9685134344262e-14
  12    -3.8214506850819e-14
  13    -2.991943882946e-14
 Sym= A
 Ene=               1
 Spin= Alpha
 Occup=    1.00000
   1     -0.11735744448738
   2      0.10652035971792
   3    -0.051260590705013
   4    1.6815127222717e-13
   5    9.2030105564427e-14
   6     -0.51427170442508
   7    1.4322594415407e-13
   8    4.0297612161563e-14
   9     -0.35907158221555
  10      0.19677114096394
  11       0.0957297118488
  12      0.19677114096386
  13     0.095729711848733
 Sym= A
 Ene=               2
 Spin= Alpha
 Occup=    1.00000
   1      0.31368417116602
   2     -0.44344162143254
   3     -0.54839511861872
   4    1.1046755257783e-13
   5      0.16986472898696
   6     -0.18571160360253
   7    9.4084119609429e-14
   8     0.084236104100831
   9     -0.16668942524076
  10     0.041246088880581
  11      0.10414894566121
  12     -0.11993802400041
  13    -0.0061745635484611
 Sym= A
 Ene=               3
 Spin= Alpha
 Occup=    1.00000
   1    -0.076509558688333
   2      0.15871258124682
   3      0.19414482168199
   4    -1.8750872487819e-14
   5      0.48360857236629
   6     0.064626610038204
   7    -1.6166498180346e-14
   8      0.23982201772465
   9     0.058389962588678
  10      0.24390821458175
  11      0.13999369858888
  12     -0.21498645521454
  13     -0.17409972801897
 Sym= A
 Ene=               4
 Spin= Alpha
 Occup=    1.00000
   1        0.960737012212
   2     0.084353251238015
   3     0.043490880525665
   4    -1.9816038633188e-16
   5    -0.016948653029898
   6    -0.017220754815039
   7    -1.6846665012361e-16
   8    -0.008404855495958
   9    -0.0045294216228516
  10     0.010244159325684
  11    -0.0011252667457458
  12     0.026326683457941
  13    0.0098825209791499
 Sym= A
 Ene=               5
 Spin= Alpha
 Occup=    1.00000
   1    -0.091096475041876
   2      0.15895464325137
   3       1.1079814504889
   4    4.6591398152813e-15
   5    -1.2152505689584e-13
   6     -0.27223583132643
   7    -4.7193550703518e-15
   8    -2.1537268917417e-13
   9     -0.45797799347609
  10    -0.072296674629151
  11     -0.95483981712954
  12    -0.072296674629195
  13     -0.95483981713029
 Sym= A
 Ene=               6
 Spin= Alpha
 Occup=    0.00000
   1    6.5076270905479e-14
   2    -5.7615100649842e-13
   3    3.1572176451704e-13
   4      0.97386109259735
   5    1.4565973895458e-11
   6    -9.4848770932033e-13
   7      -1.0270581757872
   8    2.1179942015348e-11
   9    1.1845429974639e-12
  10    -2.1594925237303e-12
  11    -3.971117584002e-11
  12    2.5446522335671e-12
  13    3.9829095911382e-11
 Sym= A
 Ene=               7
 Spin= Alpha
 Occup=    0.00000
   1    -0.0050733204746224
   2      0.09827069079132
   3     -0.14090984386799
   4    3.0720563459803e-11
   5     -0.47749211395303
   6     0.017430629684448
   7    -3.2398692530195e-11
   8     -0.66085827474812
   9    0.0034991658460759
  10      0.10687787822521
  11       1.2606995305803
  12    -0.089579498919182
  13      -1.1963120650736
 Sym= A
 Ene=               8
 Spin= Alpha
 Occup=    0.00000
   1     0.048950605413064
   2     -0.09814452446421
   3     -0.11849814639049
   4    5.7304413107745e-14
   5      0.13439599035188
   6      0.54399524193868
   7    -6.036326779551e-14
   8     -0.29724183717806
   9    0.0005936279535272
  10       1.0120628729261
  11     -0.40383241053806
  12      0.85024910182262
  13      -0.5888995794743
 Sym= A
 Ene=               9
 Spin= Alpha
 Occup=    0.00000
   1    -0.031494638016224
   2      0.98998393233023
   3      -1.7155643530685
   4    -1.2985671114937e-12
   5      0.18557822819311
   6     -0.35741917358294
   7    1.3695284541623e-12
   8     -0.87710229186075
   9      0.76350539092569
  10      0.88103616616292
  11      0.31289423722723
  12     -0.47828156056536
  13      0.66214645826478
 Sym= A
 Ene=              10
 Spin= Alpha
 Occup=    0.00000
   1     0.075745213130516
   2     -0.64804965071602
   3      0.41360799008153
   4    2.5545279738695e-13
   5    -0.080935735508618
   6     -0.73057694059279
   7    -2.6919611081047e-13
   8      0.15593575976573
   9       1.0526405694717
  10      0.31496438609368
  11    -0.086566978817284
  12      0.47987094208846
  13     -0.13890765212716
 Sym= A
 Ene=              11
 Spin= Alpha
 Occup=    0.00000
   1    0.0042985183954197
   2      -0.2218641341861
   3      0.37779358359547
   4    7.9615020933475e-13
   5      0.94878956375162
   6    -0.055200365319502
   7    -8.39762373058e-13
   8      -1.4170297911253
   9     -0.07870520824403
  10     -0.44449096343094
  11       1.1296352346272
  12      0.15801461116879
  13      -1.1951989139045
 Sym= A
 Ene=              12
 Spin= Alpha
 Occup=    0.00000
   1    -0.040464059912418
   2       1.2620614387772
   3      -2.1234697951619
   4    -6.5380436155262e-13
   5      0.02729363662376
   6      -0.1910637885945
   7    6.8962065116033e-13
   8      0.54732164541989
   9      0.72441735779148
  10     -0.27501136822229
  11      0.76412176135019
  12      0.98457040787831
  13      0.23151547170874
