[Molden Format]
made by pyscf v[2.11.0]
[Atoms] (AU)
O   1   8     0.00000000000000     0.00000000000000     0.22166487441148
H   2   1     0.00000000000000     1.43090062152066    -0.88665949764593
H   3   1     0.00000000000000    -1.43090062152066    -0.88665949764593
[GTO]
1 0
 s    6 1.00
             5484.6717   0.001831099805527
             825.23495   0.013950098518422
             188.04696    0.06844509273075
               52.9645    0.23271427528445
              16.89757    0.47019295006289
             5.7996353    0.35852086192309
 s    3 1.00
             15.539616   -0.11077750382508
             3.5999336   -0.14802630511126
             1.0137618     1.1307670390447
 s    1 1.00
             0.2700058                   1
 p    3 1.00
             15.539616   0.070874299543311
             3.5999336    0.33975279781076
             1.0137618    0.72715859531445
 p    1 1.00
             0.2700058                   1

2 0
 s    3 1.00
             18.731137    0.03349459952309
             2.8253937    0.23472694665786
             0.6401217    0.81375731841339
 s    1 1.00
             0.1612778                   1

3 0
 s    3 1.00
             18.731137    0.03349459952309
             2.8253937    0.23472694665786
             0.6401217    0.81375731841339
 s    1 1.00
             0.1612778                   1

[5d]
[7f]
[9g]

[MO]
 Sym= A
 Ene=               0
 Spin= Alpha
 Occup=    1.00000
   1    -0.084828087612845
   2      0.12362966734093
   3       1.1213032068531
   4    -5.329647751899e-14
   5    8.3657439300115e-16
   6      -0.2953761191852
   7    -4.4780972078948e-14
   8    -3.9841490260321e-15
   9     -0.49219807306509
  10    -0.061081432819257
  11     -0.96050019201909
  12    -0.061081432819258
  13     -0.96050019201909
 Sym= A
 Ene=               1
 Spin= Alpha
 Occup=    1.00000
   1     0.020883580919009
   2    -0.053128620441802
   3      0.21892616474192
   4    2.3833980583514e-14
   5    2.1288965260794e-13
   6      0.53280376276313
   7    1.991685213529e-14
   8    1.0357760665553e-13
   9      0.34235601358684
  10     -0.18884847409386
  11     -0.16490239501958
  12     -0.18884847409407
  13     -0.16490239501975
 Sym= A
 Ene=               2
 Spin= Alpha
 Occup=    1.00000
   1    2.5456697479572e-15
   2    2.6879905110522e-15
   3    -1.1925156792797e-13
   4    -1.4813657571597e-13
   5      0.50124144786186
   6    -2.3402714811128e-13
   7    -1.2432479289576e-13
   8      0.22720673936506
   9    -1.5483021267886e-13
  10      0.24456864377562
  11      0.21134419120243
  12     -0.24456864377547
  13     -0.21134419120228
 Sym= A
 Ene=               3
 Spin= Alpha
 Occup=    1.00000
   1      0.28787169615136
   2      -0.4928627091968
   3     -0.59186908434619
   4    2.0657059477664e-13
   5    -2.1382456243608e-14
   6     -0.10847936245012
   7    1.7312339636385e-13
   8    -1.3276516028092e-14
   9     -0.11838759664413
  10    -0.067136255218365
  11     0.059082117426346
  12    -0.067136255218345
  13     0.059082117426361
 Sym= A
 Ene=               4
 Spin= Alpha
 Occup=    1.00000
   1    -0.046348096377035
   2    -0.0027747393569962
   3    -0.0010259417326441
   4     -0.62648832157312
   5    -1.1830556883501e-13
   6    -5.7900415736278e-05
   7     -0.52484508847328
   8    -5.3642254290134e-14
   9    -0.00034229952439673
  10    -0.00026168597299067
  11    -2.0157528031989e-05
  12    -0.00026168597287553
  13    -2.0157527932489e-05
 Sym= A
 Ene=               5
 Spin= Alpha
 Occup=    1.00000
   1      0.97803268206134
   2     0.058552259689172
   3      0.02164931512991
   4    -0.029688722718574
   5    -5.1893137598723e-15
   6    0.0012218085170854
   7    -0.024871940569877
   8    -2.1465809010696e-15
   9    0.0072231687620031
  10    0.0055220700297866
  11    0.00042536204915128
  12    0.0055220700297916
  13    0.00042536204915578
 Sym= A
 Ene=               6
 Spin= Alpha
 Occup=    0.00000
   1    -5.3096843795754e-17
   2    -2.3688709228007e-15
   3    4.3637454665737e-15
   4    3.4841697514078e-15
   5     -0.40088926532684
   6    -4.3133351126019e-15
   7    -3.6235494504131e-15
   8      -0.7939996568918
   9    4.0138353138748e-15
  10     0.050829589438813
  11       1.3346438515972
  12     -0.05082958943882
  13      -1.3346438515972
 Sym= A
 Ene=               7
 Spin= Alpha
 Occup=    0.00000
   1    -2.088150777251e-14
   2    6.3467934814741e-15
   3    1.4325167061738e-13
   4    4.8142878291911e-14
   5     -0.51767900040995
   6    -1.3458905670667e-13
   7    -5.1071019750736e-14
   8     0.015377410110673
   9    -1.1892111683089e-13
  10      0.92522024643419
  11     -0.87111983997945
  12     -0.92522024643497
  13      0.87111983997976
 Sym= A
 Ene=               8
 Spin= Alpha
 Occup=    0.00000
   1    -0.076540024083707
   2      0.45567029564354
   3     -0.26319736560063
   4    -2.7562641010362e-14
   5    1.7247248828421e-14
   6     -0.29924671558082
   7    2.943917599162e-14
   8    3.3046395822882e-13
   9     -0.26270698414376
  10     -0.97990552851046
  11      0.55893628095285
  12     -0.97990552850966
  13      0.55893628095248
 Sym= A
 Ene=               9
 Spin= Alpha
 Occup=    0.00000
   1    -1.6312216297164e-14
   2    1.4906211778087e-13
   3    -1.6079278445435e-13
   4    -8.0247079798626e-13
   5      0.87810548725132
   6    -7.6090504404404e-14
   7    8.510584895288e-13
   8      -1.7345406636431
   9    3.2456129458891e-15
  10      0.33629624644478
  11      0.64346357538069
  12     -0.33629624644512
  13     -0.64346357538042
 Sym= A
 Ene=              10
 Spin= Alpha
 Occup=    0.00000
   1    -0.047757974680183
   2       1.6106541601272
   3      -2.7453622998003
   4     0.046566525589277
   5    -4.1804388748923e-14
   6     -0.29475054119763
   7    -0.049378528916574
   8    2.5719797862305e-15
   9       1.0207501134314
  10      0.49895951566519
  11      0.62734435021959
  12      0.49895951566504
  13      0.62734435021973
 Sym= A
 Ene=              11
 Spin= Alpha
 Occup=    0.00000
   1    -0.011552984199951
   2     0.056543512894507
   3     0.048901927976365
   4      0.93643349780256
   5    7.2365716500396e-13
   6      0.24847304305194
   7     -0.99298171732915
   8    -1.3887539884525e-12
   9     -0.32068371904795
  10    -0.040306807978407
  11    -0.055311468410118
  12    -0.040306807978877
  13    -0.055311468411208
 Sym= A
 Ene=              12
 Spin= Alpha
 Occup=    0.00000
   1    -0.051716509348547
   2      0.50735737042352
   3     -0.32534086622363
   4     -0.25219266572212
   5    -2.1843691163427e-13
   6      0.86819722361357
   7      0.26742177302949
   8    3.5351632679397e-13
   9       -1.002274153038
  10    -0.057534718882052
  11    -0.089543702748062
  12    -0.057534718882038
  13    -0.089543702747695
