[Molden Format]
made by pyscf v[2.11.0]
[Atoms] (AU)
O   1   8     0.00000000000000     0.00000000000000     0.22166487441148
H   2   1     0.00000000000000     1.43090062152066    -0.88665949764593
H   3   1     0.00000000000000    -1.43090062152066    -0.88665949764593
[GTO]
1 0
 s    6 1.00
             5484.6717   0.001831099805527
             825.23495   0.013950098518422
             188.04696    0.06844509273075
               52.9645    0.23271427528445
              16.89757    0.47019295006289
             5.7996353    0.35852086192309
 s    3 1.00
             15.539616   -0.11077750382508
             3.5999336   -0.14802630511126
             1.0137618     1.1307670390447
 s    1 1.00
             0.2700058                   1
 p    3 1.00
             15.539616   0.070874299543311
             3.5999336    0.33975279781076
             1.0137618    0.72715859531445
 p    1 1.00
             0.2700058                   1

2 0
 s    3 1.00
             18.731137    0.03349459952309
             2.8253937    0.23472694665786
             0.6401217    0.81375731841339
 s    1 1.00
             0.1612778                   1

3 0
 s    3 1.00
             18.731137    0.03349459952309
             2.8253937    0.23472694665786
             0.6401217    0.81375731841339
 s    1 1.00
             0.1612778                   1

[5d]
[7f]
[9g]

[MO]
 Sym= A
 Ene=               0
 Spin= Alpha
 Occup=    1.00000
   1    -1.7857661796573e-14
   2    3.7775250834901e-14
   3    8.028834720812e-14
   4      0.62260813310258
   5    -2.9137054172437e-15
   6    1.1916316935579e-13
   7      0.53028088653954
   8    -1.7216647920926e-15
   9    8.8246313823114e-14
  10    -3.256280125366e-14
  11    -2.4566453165211e-14
  12    -3.0186584037061e-14
  13    -2.3211317306086e-14
 Sym= A
 Ene=               1
 Spin= Alpha
 Occup=    1.00000
   1     -0.11735744448738
   2      0.10652035971793
   3    -0.051260590704998
   4    1.1543233200273e-13
   5    -3.9407015418934e-13
   6     -0.51427170442508
   7    9.8250461878698e-14
   8    -2.0038771979404e-13
   9     -0.35907158221555
  10      0.19677114096371
  11     0.095729711848641
  12      0.19677114096409
  13      0.09572971184889
 Sym= A
 Ene=               2
 Spin= Alpha
 Occup=    1.00000
   1      0.30821416072292
   2     -0.42594807049659
   3     -0.52717279598993
   4    6.7600550063263e-14
   5     -0.21525803466811
   6     -0.17874094102539
   7    5.7557245412375e-14
   8     -0.10674669382504
   9     -0.16035881639383
  10     -0.13984954342483
  11    -0.022755391442616
  12     0.064408135996955
  13      0.11705009914858
 Sym= A
 Ene=               3
 Spin= Alpha
 Occup=    1.00000
   1     -0.39148300805179
   2      -0.2163293811157
   3     -0.23507146826132
   4    3.029349017156e-14
   5      0.39299149941911
   6     -0.06255738178149
   7    2.5765413558714e-14
   8      0.19488491256094
   9    -0.061980831798025
  10      0.16149601781439
  11      0.14420868619732
  12     -0.21141239337499
  13     -0.11103088922281
 Sym= A
 Ene=               4
 Spin= Alpha
 Occup=    1.00000
   1      0.88261665743483
   2    -0.026748199294582
   3    -0.084564310304588
   4    1.779680582809e-14
   5       0.2494798471914
   6    -0.055679464976419
   7    1.5134673450147e-14
   8      0.12371732792561
   9    -0.040727071743954
  10      0.12513409296728
  11     0.095564385299918
  12     -0.11159655789267
  13    -0.066467440750091
 Sym= A
 Ene=               5
 Spin= Alpha
 Occup=    1.00000
   1    -0.091096475041876
   2      0.15895464325137
   3       1.1079814504889
   4    4.6777339651461e-15
   5    1.0795400965513e-13
   6     -0.27223583132643
   7    -4.8110327859874e-15
   8    1.9054927703719e-13
   9     -0.45797799347609
  10    -0.072296674629194
  11     -0.95483981713025
  12    -0.072296674629153
  13     -0.95483981712958
 Sym= A
 Ene=               6
 Spin= Alpha
 Occup=    0.00000
   1    -2.3759605702599e-15
   2    -1.2706768456451e-13
   3    3.1132823199487e-13
   4     -0.97386109259735
   5    6.001600475173e-12
   6    1.8157663468144e-13
   7       1.0270581757872
   8    1.2691714030304e-11
   9    -2.9923547821615e-13
  10    -1.9087271120112e-12
  11    -2.0123361409344e-11
  12    1.7651756090929e-12
  13    1.9913672176651e-11
 Sym= A
 Ene=               7
 Spin= Alpha
 Occup=    0.00000
   1    0.0079286762516605
   2    -0.078142505060219
   3     0.064262672343442
   4    -1.4854958129965e-11
   5     -0.41604886063999
   6    -0.071861338362868
   7    1.5666174899382e-11
   8     -0.74009723520109
   9     0.097493016005899
  10      0.10795303011487
  11       1.2803958293187
  12    -0.039023665553401
  13      -1.3120215857545
 Sym= A
 Ene=               8
 Spin= Alpha
 Occup=    0.00000
   1     0.012040709786897
   2     -0.25861025044576
   3       0.2621220139195
   4    1.3167351572806e-13
   5     -0.27260655685387
   6     -0.56927513303612
   7    -1.3894943622178e-13
   8     -0.14453371186973
   9      0.46014203858153
  10      0.50102724130473
  11     -0.50948875827242
  12     -0.99793921052609
  13      0.84689486185778
 Sym= A
 Ene=               9
 Spin= Alpha
 Occup=    0.00000
   1    -0.023211991971305
   2      0.36391112681636
   3     -0.35535238544281
   4    -1.3737909255516e-12
   5      0.24539697661218
   6      0.61850188857255
   7    1.4488354401737e-12
   8      -1.0339591040102
   9     -0.55322007744151
  10      0.79439118480036
  11    -0.073644534962494
  12     -0.44350699799555
  13      -0.1717085421176
 Sym= A
 Ene=              10
 Spin= Alpha
 Occup=    0.00000
   1     0.087286018911551
   2     -0.53039093368599
   3      0.24070640978263
   4    8.3673012532628e-13
   5     0.047365065596369
   6    -0.049837709772444
   7    -8.8245111628224e-13
   8    -0.045590873523146
   9      0.65582833334322
  10       1.0165863821267
  11     -0.56045956131626
  12      0.89243224248769
  13      -0.3715206080178
 Sym= A
 Ene=              11
 Spin= Alpha
 Occup=    0.00000
   1    0.0066960648630268
   2     -0.11314831630576
   3     0.073621810932879
   4    -1.0328840176215e-14
   5      0.93630066274744
   6     -0.37277342843366
   7    1.0963460281378e-14
   8      -1.4081003208698
   9      0.33301041129862
  10     -0.26847581248044
  11       1.0308530624798
  12    0.0014650070880526
  13     -0.77918077174989
 Sym= A
 Ene=              12
 Spin= Alpha
 Occup=    0.00000
   1    -0.048955507752101
   2       1.6005670484956
   3      -2.7454524710352
   4    -1.9282082761481e-13
   5    -0.038267559963362
   6      -0.3795412916183
   7    2.0334204244281e-13
   8     0.060949089806193
   9       1.0740975236574
  10      0.43018398097284
  11      0.66076444277029
  12      0.44020844392163
  13      0.71030471488528
