[Molden Format]
made by pyscf v[2.11.0]
[Atoms] (AU)
O   1   8     0.00000000000000     0.00000000000000     0.22166487441148
H   2   1     0.00000000000000     1.43090062152066    -0.88665949764593
H   3   1     0.00000000000000    -1.43090062152066    -0.88665949764593
[GTO]
1 0
 s    6 1.00
             5484.6717   0.001831099805527
             825.23495   0.013950098518422
             188.04696    0.06844509273075
               52.9645    0.23271427528445
              16.89757    0.47019295006289
             5.7996353    0.35852086192309
 s    3 1.00
             15.539616   -0.11077750382508
             3.5999336   -0.14802630511126
             1.0137618     1.1307670390447
 s    1 1.00
             0.2700058                   1
 p    3 1.00
             15.539616   0.070874299543311
             3.5999336    0.33975279781076
             1.0137618    0.72715859531445
 p    1 1.00
             0.2700058                   1

2 0
 s    3 1.00
             18.731137    0.03349459952309
             2.8253937    0.23472694665786
             0.6401217    0.81375731841339
 s    1 1.00
             0.1612778                   1

3 0
 s    3 1.00
             18.731137    0.03349459952309
             2.8253937    0.23472694665786
             0.6401217    0.81375731841339
 s    1 1.00
             0.1612778                   1

[5d]
[7f]
[9g]

[MO]
 Sym= A
 Ene=               0
 Spin= Alpha
 Occup=    1.00000
   1    -0.084828087612837
   2      0.12362966734091
   3        1.121303206853
   4    1.6401585306462e-15
   5    3.6171878944033e-15
   6     -0.29537611918525
   7    1.2425891192806e-15
   8    -2.7237302602204e-15
   9     -0.49219807306512
  10    -0.061081432819244
  11     -0.96050019201907
  12    -0.061081432819247
  13     -0.96050019201907
 Sym= A
 Ene=               1
 Spin= Alpha
 Occup=    1.00000
   1     0.020883580919025
   2     -0.05312862044181
   3      0.21892616474199
   4    2.3761035727165e-14
   5    -1.8152083503368e-13
   6       0.5328037627631
   7    1.9855742058268e-14
   8    -7.5203939145799e-14
   9       0.3423560135868
  10     -0.18884847409406
  11     -0.16490239501982
  12     -0.18884847409389
  13     -0.16490239501966
 Sym= A
 Ene=               2
 Spin= Alpha
 Occup=    1.00000
   1    -9.5350459818795e-15
   2    1.6792048480894e-14
   3    1.1460026904319e-13
   4    -2.340579687181e-14
   5      0.50124144786186
   6    1.9932995835384e-13
   7    -1.9830687573218e-14
   8      0.22720673936506
   9    1.3089537263535e-13
  10      0.24456864377548
  11       0.2113441912023
  12     -0.24456864377561
  13     -0.21134419120241
 Sym= A
 Ene=               3
 Spin= Alpha
 Occup=    1.00000
   1      0.28787169615141
   2      -0.4928627091968
   3     -0.59186908434624
   4    -2.0254029944746e-13
   5    3.5863617324203e-14
   6     -0.10847936245013
   7    -1.6961219196326e-13
   8    1.2672442846472e-14
   9     -0.11838759664412
  10    -0.067136255218328
  11     0.059082117426413
  12    -0.067136255218363
  13     0.059082117426381
 Sym= A
 Ene=               4
 Spin= Alpha
 Occup=    1.00000
   1    -0.041013411013612
   2    -0.0024553656910407
   3    -0.00090785540777373
   4     -0.62664092078441
   5    -1.8805997726545e-14
   6    -5.1236053515419e-05
   7     -0.52497292955793
   8    -8.5391695880083e-15
   9    -0.00030290070530448
  10    -0.00023156580748913
  11    -1.7837388162655e-05
  12    -0.00023156580747108
  13    -1.783738814706e-05
 Sym= A
 Ene=               5
 Spin= Alpha
 Occup=    1.00000
   1      0.97827090999113
   2     0.058566521772545
   3     0.021654588442012
   4    -0.026271538261579
   5    -2.3873221445147e-15
   6    0.0012221061236169
   7    -0.022009169761703
   8    -8.7638880917173e-16
   9    0.0072249281720667
  10     0.005523415088438
  11    0.00042546565827889
  12    0.0055234150884403
  13    0.00042546565828103
 Sym= A
 Ene=               6
 Spin= Alpha
 Occup=    0.00000
   1    1.9050193095335e-16
   2    -3.2285635052939e-15
   3    5.1014936763075e-15
   4    2.0806462049687e-15
   5     -0.40088926532685
   6    1.3284994513514e-15
   7    -2.1352716125042e-15
   8     -0.79399965689179
   9    1.0047970235244e-15
  10     0.050829589438821
  11       1.3346438515972
  12    -0.050829589438817
  13      -1.3346438515972
 Sym= A
 Ene=               7
 Spin= Alpha
 Occup=    0.00000
   1    2.2407584720905e-14
   2    -2.0389867965135e-13
   3    2.3613399594528e-13
   4    1.3812496082003e-14
   5      -0.5176790004101
   6    1.9515339991146e-13
   7    -1.4667535719724e-14
   8      0.01537741011099
   9    -7.9642408622925e-14
  10      0.92522024643479
  11     -0.87111983997995
  12     -0.92522024643425
  13       0.8711198399795
 Sym= A
 Ene=               8
 Spin= Alpha
 Occup=    0.00000
   1    -0.076540024083697
   2      0.45567029564338
   3     -0.26319736560043
   4    3.5513284591526e-14
   5    -1.7869063222279e-13
   6     -0.29924671558092
   7    -3.7445702724556e-14
   8    2.724024774951e-14
   9     -0.26270698414368
  10      -0.9799055285098
  11      0.55893628095236
  12     -0.97990552851037
  13      0.55893628095292
 Sym= A
 Ene=               9
 Spin= Alpha
 Occup=    0.00000
   1    7.1513310141521e-16
   2    2.0984070108218e-13
   3    -4.6768835374553e-13
   4    -2.7419186794084e-13
   5      0.87810548725122
   6    -2.4799682392051e-13
   7    2.9087848698055e-13
   8      -1.7345406636431
   9    4.144353148735e-13
  10      0.33629624644521
  11      0.64346357538055
  12     -0.33629624644502
  13     -0.64346357538025
 Sym= A
 Ene=              10
 Spin= Alpha
 Occup=    0.00000
   1     0.022636105512198
   2     -0.30496401787167
   3      0.31985266479181
   4      0.90349774797723
   5    1.7141363882864e-13
   6     -0.30042302944175
   7      -0.9580570830654
   8    -3.4868672293595e-13
   9      0.29742856654688
  10    -0.014887940436655
  11    -0.012341277630316
  12    -0.014887940436817
  13    -0.012341277630545
 Sym= A
 Ene=              11
 Spin= Alpha
 Occup=    0.00000
   1     -0.06182193301691
   2      0.96705745131286
   3      -1.1607566458906
   4      0.35220869343425
   5    2.2778149789901e-13
   6       0.6916885686262
   7     -0.37347744830284
   8    -3.881270367631e-13
   9     -0.58368435080409
  10      0.10551373910954
  11      0.11711184139315
  12      0.10551373910951
  13      0.11711184139275
 Sym= A
 Ene=              12
 Spin= Alpha
 Occup=    0.00000
   1    -0.027469041737391
   2       1.3515222260002
   3       -2.489094316575
   4    -0.048146998095779
   5    -2.8005884747642e-13
   6     -0.57766433260409
   7     0.051054441095474
   8    4.5874588976936e-13
   9       1.3115529520416
  10      0.49248419366277
  11      0.62511669027773
  12      0.49248419366277
  13      0.62511669027823
