[Molden Format]
made by pyscf v[2.11.0]
[Atoms] (AU)
O   1   8     0.00000000000000     0.00000000000000     0.22166487441148
H   2   1     0.00000000000000     1.43090062152066    -0.88665949764593
H   3   1     0.00000000000000    -1.43090062152066    -0.88665949764593
[GTO]
1 0
 s    6 1.00
             5484.6717   0.001831099805527
             825.23495   0.013950098518422
             188.04696    0.06844509273075
               52.9645    0.23271427528445
              16.89757    0.47019295006289
             5.7996353    0.35852086192309
 s    3 1.00
             15.539616   -0.11077750382508
             3.5999336   -0.14802630511126
             1.0137618     1.1307670390447
 s    1 1.00
             0.2700058                   1
 p    3 1.00
             15.539616   0.070874299543311
             3.5999336    0.33975279781076
             1.0137618    0.72715859531445
 p    1 1.00
             0.2700058                   1

2 0
 s    3 1.00
             18.731137    0.03349459952309
             2.8253937    0.23472694665786
             0.6401217    0.81375731841339
 s    1 1.00
             0.1612778                   1

3 0
 s    3 1.00
             18.731137    0.03349459952309
             2.8253937    0.23472694665786
             0.6401217    0.81375731841339
 s    1 1.00
             0.1612778                   1

[5d]
[7f]
[9g]

[MO]
 Sym= A
 Ene=               0
 Spin= Alpha
 Occup=    1.00000
   1    -0.082959283194563
   2      0.20524841006699
   3      0.27547103416943
   4    9.0056482861842e-16
   5    1.746393577076e-13
   6      0.61178769033376
   7    5.3051611196165e-16
   8    7.6525922086497e-14
   9      0.35465772665085
  10     -0.13584754240765
  11    -0.047719032388673
  12     -0.13584754240781
  13    -0.047719032388709
 Sym= A
 Ene=               1
 Spin= Alpha
 Occup=    1.00000
   1      0.17378552447803
   2      0.46894012168373
   3      0.41795380710806
   4    -9.0125382370456e-18
   5    1.4069992017596e-12
   6     -0.14306993424828
   7    -5.8225401882281e-18
   8    6.0958729444387e-13
   9    -0.061530751469252
  10       0.1370451084498
  11    -0.020487985764033
  12      0.13704510844851
  13    -0.020487985764339
 Sym= A
 Ene=               2
 Spin= Alpha
 Occup=    1.00000
   1    -0.075925218228106
   2     0.012105775491268
   3     0.013813643364208
   4    -6.0413527191241e-17
   5      0.57272117144424
   6    -0.0042141708664547
   7    1.9659349674482e-17
   8      0.24794310020767
   9    -0.0021155120745727
  10      0.26769936248564
  11     0.061735014877246
  12     -0.25934125789669
  13    -0.063472243967672
 Sym= A
 Ene=               3
 Spin= Alpha
 Occup=    1.00000
   1       1.0001469866898
   2     -0.15946684333575
   3      -0.1819642288758
   4    -6.4189516977827e-19
   5       0.0434775892986
   6     0.055512389585838
   7    4.2243327284984e-18
   8      0.01882236735385
   9     0.027867197172721
  10    -0.035044883394118
  11     0.016194573025801
  12    -0.075054676604448
  13    0.0066895816815213
 Sym= A
 Ene=               4
 Spin= Alpha
 Occup=    1.00000
   1    -8.9687932605485e-15
   2    2.1919435505236e-14
   3    9.8679535036555e-14
   4      0.68970270591614
   5    -7.4536819204247e-14
   6    -2.9554804611466e-14
   7      0.45656922474968
   8    -3.948346832555e-14
   9    -3.6798449920028e-14
  10    2.1569762504321e-14
  11    6.4080066572325e-15
  12    -4.7791732328666e-14
  13    -1.8459413067295e-13
 Sym= A
 Ene=               5
 Spin= Alpha
 Occup=    0.00000
   1    -5.1791169413721e-13
   2    6.3089639694433e-12
   3    -6.2760094346667e-12
   4     -0.92755403752684
   5    9.3186181498608e-12
   6    -5.7560557289488e-12
   7       1.0618808116224
   8    2.8499301138512e-12
   9    5.6220259097458e-12
  10    -1.0237779051429e-11
  11    8.2245438841635e-13
  12    9.573808240984e-12
  13    6.2614543020955e-14
 Sym= A
 Ene=               6
 Spin= Alpha
 Occup=    0.00000
   1     0.018844916788086
   2     -0.20944450949702
   3      0.38441141497796
   4    4.9553126811392e-12
   5      0.50332541594261
   6      0.41126539293454
   7    -5.5605685107066e-12
   8      0.26279162428241
   9     -0.33758351682683
  10       0.2522118578483
  11      -1.2551999202089
  12      0.49450796138814
  13      0.41027763103961
 Sym= A
 Ene=               7
 Spin= Alpha
 Occup=    0.00000
   1     0.045676007826719
   2     -0.61727667005723
   3      0.76912093899976
   4    -1.2671357610497e-11
   5     -0.44394257728148
   6      0.63744633163363
   7    1.4477374062615e-11
   8     -0.17928021184974
   9     -0.65030619784721
  10      0.75755972310329
  11     -0.44676955514641
  12      -0.4573289108554
  13     -0.06567183532473
 Sym= A
 Ene=               8
 Spin= Alpha
 Occup=    0.00000
   1    0.0084274585488894
   2     -0.22756007607235
   3      0.12745270505123
   4    -1.126451842309e-12
   5     0.024496122724027
   6     -0.41646897017137
   7    1.3487284748973e-12
   8    0.0065861387880013
   9      0.30134778369395
  10      0.11288982878434
  11     -0.59024090372872
  12      -1.0005883493394
  13       1.3939998066404
 Sym= A
 Ene=               9
 Spin= Alpha
 Occup=    0.00000
   1    -0.083154572051281
   2      0.10524698847231
   3       1.1341701178624
   4    -2.0962267730067e-13
   5     -0.13189434787183
   6     -0.18523959460674
   7    1.043789666729e-13
   8     -0.13345776251231
   9     -0.48515395806849
  10      0.17796161310634
  11      -1.0975564899698
  12     -0.46057278580037
  13      -0.7273661420208
 Sym= A
 Ene=              10
 Spin= Alpha
 Occup=    0.00000
   1     0.078729415158211
   2     -0.50631062523471
   3      0.17561178629665
   4    -4.0103502740427e-13
   5    -0.083188286826965
   6     -0.43864220406801
   7    4.417831324081e-13
   8    -0.081258224122758
   9       1.0313437058442
  10      0.85845966880324
  11     -0.22558958382178
  12      0.65313139544067
  13     -0.32104304240957
 Sym= A
 Ene=              11
 Spin= Alpha
 Occup=    0.00000
   1    -0.0029344908191432
   2     0.043364869874465
   3    -0.043913604203985
   4    -5.633321907595e-13
   5      -0.7969115417391
   6    -0.028799879195654
   7    6.4184994041163e-13
   8       1.8686781120159
   9     0.036100546765532
  10     -0.19599200987018
  11        -1.08869313999
  12      0.22775748562611
  13       1.0696884143804
 Sym= A
 Ene=              12
 Spin= Alpha
 Occup=    0.00000
   1     0.037000443330118
   2       -1.514368064243
   3       2.6480197910678
   4    8.9827506634914e-13
   5      0.10349001698329
   6     0.022400346480687
   7    -1.0262899910779e-12
   8      0.10714525005565
   9     -0.73041348803479
  10     -0.84979592012088
  11     -0.31316122778669
  12     -0.18437650836173
  13     -0.87756389356523
