[Molden Format]
made by pyscf v[2.11.0]
[Atoms] (AU)
O   1   8     0.00000000000000     0.00000000000000     0.22166487441148
H   2   1     0.00000000000000     1.43090062152066    -0.88665949764593
H   3   1     0.00000000000000    -1.43090062152066    -0.88665949764593
[GTO]
1 0
 s    6 1.00
             5484.6717   0.001831099805527
             825.23495   0.013950098518422
             188.04696    0.06844509273075
               52.9645    0.23271427528445
              16.89757    0.47019295006289
             5.7996353    0.35852086192309
 s    3 1.00
             15.539616   -0.11077750382508
             3.5999336   -0.14802630511126
             1.0137618     1.1307670390447
 s    1 1.00
             0.2700058                   1
 p    3 1.00
             15.539616   0.070874299543311
             3.5999336    0.33975279781076
             1.0137618    0.72715859531445
 p    1 1.00
             0.2700058                   1

2 0
 s    3 1.00
             18.731137    0.03349459952309
             2.8253937    0.23472694665786
             0.6401217    0.81375731841339
 s    1 1.00
             0.1612778                   1

3 0
 s    3 1.00
             18.731137    0.03349459952309
             2.8253937    0.23472694665786
             0.6401217    0.81375731841339
 s    1 1.00
             0.1612778                   1

[5d]
[7f]
[9g]

[MO]
 Sym= A
 Ene=               0
 Spin= Alpha
 Occup=    1.00000
   1     -0.12324117462175
   2      0.39590924808456
   3      0.42033256602952
   4    4.0154049790643e-11
   5    3.736059987394e-13
   6      0.51193531080655
   7    2.2273749885985e-11
   8    1.5939771007725e-13
   9      0.28612784923483
  10    -0.072581027299832
  11    -0.052505094063836
  12    -0.072581027300146
  13    -0.052505094063901
 Sym= A
 Ene=               1
 Spin= Alpha
 Occup=    1.00000
   1    6.7896150350946e-12
   2    -2.1966211987028e-11
   3    -2.3255277309009e-11
   4      0.73243034871796
   5    1.5409611017913e-12
   6    -2.7803072185405e-11
   7      0.40628358319091
   8    6.588286964548e-13
   9    -1.5548388566772e-11
  10    4.5137898583505e-12
  11    3.0163287373322e-12
  12    3.2166760397129e-12
  13    2.7534708843038e-12
 Sym= A
 Ene=               2
 Spin= Alpha
 Occup=    1.00000
   1     -0.10028196270616
   2      0.31872663912626
   3       0.2598268113631
   4    1.5024322120069e-12
   5     -0.34646921319171
   6     -0.31983985284428
   7    8.3348083626754e-13
   8     -0.14820440182516
   9     -0.16808298515632
  10    -0.0066922340756167
  11    -0.037488124133633
  12      0.28497099514051
  13     0.021647322543774
 Sym= A
 Ene=               3
 Spin= Alpha
 Occup=    1.00000
   1     0.050090362048745
   2      0.22629977809049
   3      0.17958246670796
   4    -1.243937633325e-12
   5      0.47976275225101
   6     -0.22808260940393
   7    -6.9017251835015e-13
   8      0.20522155795704
   9     -0.11946266406556
  10       0.3003571671543
  11     0.035983012100868
  12     -0.10351465825293
  13    -0.045903007127769
 Sym= A
 Ene=               4
 Spin= Alpha
 Occup=    1.00000
   1        1.008330511844
   2    -0.031887925140592
   3    -0.066306028632382
   4    1.8713463797684e-13
   5    -0.058290512866006
   6      0.02383100895799
   7    1.0382363120541e-13
   8    -0.024934136317065
   9     0.015814633796768
  10     -0.04149583876049
  11    0.0012795512254661
  12    0.0075740311380408
  13     0.011228589651225
 Sym= A
 Ene=               5
 Spin= Alpha
 Occup=    0.00000
   1    5.047042296838e-12
   2    -3.8587548273504e-11
   3    9.0558823279585e-12
   4     -0.89419913853531
   5    1.3372004228426e-12
   6    -3.3677983504162e-11
   7       1.0821182768579
   8    1.9411624061779e-12
   9    6.4397687597701e-11
  10    2.0999267085468e-11
  11    5.2622288768684e-12
  12    2.1063904485922e-11
  13    1.427365743665e-11
 Sym= A
 Ene=               6
 Spin= Alpha
 Occup=    0.00000
   1     0.076565963492608
   2      -0.6736431170321
   3      0.35721608589012
   4    4.9716817319862e-11
   5    -4.6033342439144e-12
   6     -0.67224591857112
   7    -6.0165146401861e-11
   8    -2.9658827103997e-12
   9       1.1138002099696
  10      0.35710528314819
  11     0.012935142322939
  12      0.35710528314374
  13     0.012935142309363
 Sym= A
 Ene=               7
 Spin= Alpha
 Occup=    0.00000
   1    -0.043199629263138
   2    -0.010123783413349
   3      0.82829343014737
   4    -3.835866917235e-12
   5      0.33087101029248
   6     -0.14891731756694
   7    4.6421008721148e-12
   8      0.47759100730188
   9     -0.21140263809364
  10      -0.1160880791154
  11      -1.5485727673834
  12      0.23008506154362
  13      0.10880193898624
 Sym= A
 Ene=               8
 Spin= Alpha
 Occup=    0.00000
   1    -0.063764752774894
   2      0.02435847511192
   3      0.93049397955995
   4    -8.5624961707903e-12
   5     -0.26193609368566
   6     -0.34400377301778
   7    1.0362112120183e-11
   8     -0.51886019942734
   9     -0.23069923695581
  10     -0.06612534531844
  11      0.12374947886622
  12     -0.49820912521021
  13      -1.3047558717832
 Sym= A
 Ene=               9
 Spin= Alpha
 Occup=    0.00000
   1       0.0192642898664
   2     -0.11089648439417
   3      0.17552301349309
   4    -1.587585100991e-12
   5     -0.35941595840703
   6      0.24813273419477
   7    1.9212410884366e-12
   8      0.92353563146258
   9    -0.068102555284945
  10     -0.18118678788274
  11    -0.033918092814559
  12       1.1269837911165
  13     -0.75253425594309
 Sym= A
 Ene=              10
 Spin= Alpha
 Occup=    0.00000
   1     0.034567608598727
   2     -0.11467997006354
   3     0.046911296754311
   4    2.0051548393736e-16
   5     -0.18576223223222
   6      0.38852061442821
   7    -4.4886685945215e-16
   8     -0.34612387097454
   9    -0.035364447213257
  10       1.3496168999558
  11     -0.79387170997549
  12     0.099225359569243
  13     -0.13225379725445
 Sym= A
 Ene=              11
 Spin= Alpha
 Occup=    0.00000
   1    -0.013252872230344
   2     0.082301268167339
   3    -0.087191594570972
   4    3.9110125595882e-13
   5     -0.86917871766134
   6      -0.1439478235225
   7    -4.7345565193479e-13
   8       1.4681765395771
   9     0.040166901947182
  10      0.03353270846927
  11      -1.0736620165221
  12     -0.50753744992818
  13       1.4230441017203
 Sym= A
 Ene=              12
 Spin= Alpha
 Occup=    0.00000
   1     0.046096519880765
   2      -1.5904824553934
   3       2.7147032706263
   4    6.6153043177725e-13
   5    -0.012639792075292
   6      0.36358547371178
   7    -8.0039368300971e-13
   8     0.025549316946071
   9      -1.0588971652898
  10     -0.43763775926287
  11     -0.68262572127207
  12     -0.47551110874518
  13     -0.58345791948391
