[Molden Format]
made by pyscf v[2.11.0]
[Atoms] (AU)
O   1   8     0.00000000000000     0.00000000000000     0.22166487441148
H   2   1     0.00000000000000     1.43090062152066    -0.88665949764593
H   3   1     0.00000000000000    -1.43090062152066    -0.88665949764593
[GTO]
1 0
 s    6 1.00
             5484.6717   0.001831099805527
             825.23495   0.013950098518422
             188.04696    0.06844509273075
               52.9645    0.23271427528445
              16.89757    0.47019295006289
             5.7996353    0.35852086192309
 s    3 1.00
             15.539616   -0.11077750382508
             3.5999336   -0.14802630511126
             1.0137618     1.1307670390447
 s    1 1.00
             0.2700058                   1
 p    3 1.00
             15.539616   0.070874299543311
             3.5999336    0.33975279781076
             1.0137618    0.72715859531445
 p    1 1.00
             0.2700058                   1

2 0
 s    3 1.00
             18.731137    0.03349459952309
             2.8253937    0.23472694665786
             0.6401217    0.81375731841339
 s    1 1.00
             0.1612778                   1

3 0
 s    3 1.00
             18.731137    0.03349459952309
             2.8253937    0.23472694665786
             0.6401217    0.81375731841339
 s    1 1.00
             0.1612778                   1

[5d]
[7f]
[9g]

[MO]
 Sym= A
 Ene=               0
 Spin= Alpha
 Occup=    1.00000
   1    1.0070146287215e-14
   2    -2.6199250235813e-14
   3    -3.9634125719147e-14
   4    1.0085256841312e-16
   5      0.57436908081101
   6    -1.1708836504587e-13
   7    -2.9692974130594e-16
   8      0.24865651500292
   9    -6.7586162590876e-14
  10      0.26427854580243
  11     0.062783760893875
  12     -0.26427854580237
  13    -0.062783760893858
 Sym= A
 Ene=               1
 Spin= Alpha
 Occup=    1.00000
   1    -0.070562889324142
   2      0.17744286810239
   3      0.24970114659922
   4    2.0098852013786e-16
   5    1.0684048679125e-13
   6      0.61937371198388
   7    1.2209105178197e-16
   8    4.5890490795534e-14
   9      0.35786339460287
  10     -0.14384985176395
  11    -0.046349431359803
  12     -0.14384985176405
  13    -0.046349431359827
 Sym= A
 Ene=               2
 Spin= Alpha
 Occup=    1.00000
   1     -0.25507665379882
   2       0.5040118752532
   3      0.47063873857191
   4    3.5368799082277e-17
   5    -8.0151006346362e-15
   6     -0.11910494323621
   7    1.9191564488851e-17
   8    -3.8211190099593e-15
   9    -0.047770173277329
  10      0.13986739845601
  11    -0.026002682879066
  12      0.13986739845601
  13    -0.026002682879066
 Sym= A
 Ene=               3
 Spin= Alpha
 Occup=    1.00000
   1      0.98645783704673
   2     0.045760568690203
   3    0.0044707961626692
   4    2.3982863947328e-19
   5    -3.7363678353072e-16
   6    -0.0065411133117615
   7    1.1381081419529e-18
   8    -1.8314010643018e-16
   9    0.00099692902864541
  10    0.0053094520180175
  11    0.0020322238788748
  12    0.0053094520180178
  13    0.0020322238788748
 Sym= A
 Ene=               4
 Spin= Alpha
 Occup=    1.00000
   1    -2.537401262642e-15
   2    -9.204539545383e-15
   3    5.5540950498381e-14
   4      0.68800777395624
   5    -1.0674339465524e-14
   6    -1.7614043235708e-14
   7      0.45850753615008
   8    9.3358380141665e-15
   9    -1.2996131821856e-14
  10    -1.0697114770724e-14
  11    -3.6606205589386e-14
  12    -2.7466871782399e-14
  13    -1.2226160616709e-14
 Sym= A
 Ene=               5
 Spin= Alpha
 Occup=    0.00000
   1    -0.091713847463317
   2      0.29171661823327
   3      0.80085986501468
   4    -0.056477133765729
   5      0.13614773816032
   6      -0.3432514277843
   7     0.064517687065583
   8      0.23716412871143
   9     -0.28587430860184
  10      -0.2795483517712
  11      -1.1195253812487
  12     -0.13394033692278
  13     -0.35692286224694
 Sym= A
 Ene=               6
 Spin= Alpha
 Occup=    0.00000
   1    -0.019331293933322
   2     0.078981528087327
   3      0.22892145348135
   4      0.28832111450787
   5     -0.84705920408226
   6      0.18625259740661
   7     -0.32936890029497
   8      0.89999808853021
   9      -0.3016086457184
  10     0.034974120903751
  11      -0.2615949278432
  12      0.20019713169986
  13     -0.41564527803482
 Sym= A
 Ene=               7
 Spin= Alpha
 Occup=    0.00000
   1     0.037578237718171
   2     -0.49942361358831
   3      0.73738896768189
   4      0.24902542492212
   5       0.4093243179105
   6     -0.15692682681752
   7     -0.28447875034086
   8      -1.0766008969041
   9      0.29578305579128
  10      0.26384859221429
  11      0.67957139055917
  12      0.61695397603858
  13      -1.7183919338991
 Sym= A
 Ene=               8
 Spin= Alpha
 Occup=    0.00000
   1      0.01052122626061
   2    -0.046588850962054
   3      0.24989374586282
   4     -0.10047859068793
   5      0.13502699924463
   6      0.75141202095389
   7      0.11478355643347
   8     -0.22918877526965
   9     -0.65568245732495
  10      0.80984437328898
  11     -0.91399075152764
  12      0.24480770729577
  13     -0.20190509196424
 Sym= A
 Ene=               9
 Spin= Alpha
 Occup=    0.00000
   1    0.0068346300172879
   2    -0.080596173184358
   3      0.13327676423363
   4     -0.81318005719243
   5     -0.10309892713648
   6     0.031156940563098
   7      0.92895111631496
   8      0.13451403897215
   9    0.0017872502403397
  10     -0.21068114619392
  11      0.38834870672242
  12      0.44495383001819
  13     -0.64727129197304
 Sym= A
 Ene=              10
 Spin= Alpha
 Occup=    0.00000
   1     0.068226238841551
   2     -0.27937139369924
   3     -0.22313601760094
   4    0.00027173189242414
   5     -0.19439488481964
   6     -0.29588214204947
   7    -0.00031041789892547
   8       1.0794188658672
   9      0.89461107094935
  10      0.50274515253814
  11     -0.99977991411899
  12      0.79006384732649
  13      0.89763959476369
 Sym= A
 Ene=              11
 Spin= Alpha
 Occup=    0.00000
   1    -0.012049148375103
   2      0.25454724009454
   3     -0.38206174700917
   4      0.20734550310599
   5      0.38540158490115
   6      0.31960255297473
   7     -0.23686492907634
   8      0.51653946030352
   9       -0.311909544294
  10     -0.86778744334496
  11      0.33702893673158
  12      0.81331784585465
  13    -0.087548518995338
 Sym= A
 Ene=              12
 Spin= Alpha
 Occup=    0.00000
   1     0.042993437177246
   2      -1.5959417444752
   3       2.7519424839845
   4    0.0030397352603705
   5    -0.048361286934543
   6      0.21108040102179
   7    -0.0034724971898392
   8      0.31812509446138
   9      -0.9347747650343
  10     -0.56957198138355
  11      -0.8828529679542
  12     -0.44405893939421
  13      -0.3690320773466
