[Molden Format]
made by pyscf v[2.11.0]
[Atoms] (AU)
O   1   8     0.00000000000000     0.00000000000000     0.22166487441148
H   2   1     0.00000000000000     1.43090062152066    -0.88665949764593
H   3   1     0.00000000000000    -1.43090062152066    -0.88665949764593
[GTO]
1 0
 s    6 1.00
             5484.6717   0.001831099805527
             825.23495   0.013950098518422
             188.04696    0.06844509273075
               52.9645    0.23271427528445
              16.89757    0.47019295006289
             5.7996353    0.35852086192309
 s    3 1.00
             15.539616   -0.11077750382508
             3.5999336   -0.14802630511126
             1.0137618     1.1307670390447
 s    1 1.00
             0.2700058                   1
 p    3 1.00
             15.539616   0.070874299543311
             3.5999336    0.33975279781076
             1.0137618    0.72715859531445
 p    1 1.00
             0.2700058                   1

2 0
 s    3 1.00
             18.731137    0.03349459952309
             2.8253937    0.23472694665786
             0.6401217    0.81375731841339
 s    1 1.00
             0.1612778                   1

3 0
 s    3 1.00
             18.731137    0.03349459952309
             2.8253937    0.23472694665786
             0.6401217    0.81375731841339
 s    1 1.00
             0.1612778                   1

[5d]
[7f]
[9g]

[MO]
 Sym= A
 Ene=               0
 Spin= Alpha
 Occup=    1.00000
   1    3.1437662534768e-14
   2    -7.6968958507538e-14
   3    -9.7272896464057e-14
   4    -6.0288785165326e-17
   5      0.57436908081101
   6    -1.780455213278e-13
   7    1.9922711652005e-17
   8      0.24865651500292
   9    -1.0364532920416e-13
  10      0.26427854580244
  11     0.062783760893882
  12     -0.26427854580237
  13    -0.062783760893852
 Sym= A
 Ene=               1
 Spin= Alpha
 Occup=    1.00000
   1    -0.074999260644857
   2      0.18772405805569
   3      0.25925484392751
   4    9.0035306563652e-16
   5    1.7147666573541e-13
   6      0.61680953862091
   7    5.3041354423042e-16
   8    7.5138394987075e-14
   9      0.35681491541009
  10     -0.14096213003281
  11    -0.046868744924639
  12     -0.14096213003296
  13    -0.046868744924675
 Sym= A
 Ene=               2
 Spin= Alpha
 Occup=    1.00000
   1     -0.19883095416606
   2      0.50204032189757
   3      0.46497429308744
   4    2.1859800247398e-17
   5    2.3921738170615e-14
   6     -0.13190335654426
   7    1.225292720896e-17
   8    1.0892936886676e-14
   9    -0.054938029121487
  10      0.14285477988753
  11    -0.024899571529174
  12      0.14285477988751
  13    -0.024899571529178
 Sym= A
 Ene=               3
 Spin= Alpha
 Occup=    1.00000
   1      0.99899131502833
   2     0.017976782236686
   3    -0.021384703500727
   4    -4.5978521601813e-19
   5    -5.0979016119253e-16
   6    0.00025760815452773
   7    -7.3986104073378e-20
   8    -2.3204427455839e-16
   9    0.0037578739012495
  10    -0.0024594804309113
  11    0.0034454789264529
  12    -0.0024594804309108
  13     0.003445478926453
 Sym= A
 Ene=               4
 Spin= Alpha
 Occup=    1.00000
   1    1.0719378532573e-15
   2    -2.8520075567448e-15
   3    -1.0448921229612e-14
   4      0.68800777395623
   5    -1.3177127112427e-14
   6    -6.0261791922917e-15
   7      0.45850753615009
   8    -2.4195135588931e-14
   9    1.291201380179e-14
  10    1.4046882596531e-15
  11    6.1430078848177e-14
  12    3.7836056324908e-15
  13    -4.3793120032682e-14
 Sym= A
 Ene=               5
 Spin= Alpha
 Occup=    0.00000
   1    -0.096496847023951
   2      0.31370940174047
   3      0.82147494344253
   4     0.034462737085042
   5    -0.084275434488037
   6     -0.37224791837725
   7    -0.039369138240978
   8     0.067389806149429
   9     -0.28621278137268
  10       -0.281334316692
  11     -0.64049832834952
  12     -0.17059223101081
  13     -0.87657801445057
 Sym= A
 Ene=               6
 Spin= Alpha
 Occup=    0.00000
   1     0.003815757958772
   2     -0.19607615733877
   3      0.55224840363492
   4    0.0026551310990956
   5        0.425887754393
   6      0.34893870113749
   7    -0.0030331375894159
   8       0.6029484365574
   9      -0.4167854507511
  10    -0.053709329867352
  11      -1.3516541818872
  12      0.56502997174718
  13      0.37995144618734
 Sym= A
 Ene=               7
 Spin= Alpha
 Occup=    0.00000
   1     0.027642338632381
   2     -0.13286358937118
   3     -0.02890195850427
   4     0.020154498405891
   5     -0.60146448222412
   6     0.028653411722859
   7     -0.02302386000165
   8       1.3616408689956
   9      0.18803579950344
  10     -0.34217727354892
  11    -0.038025555696625
  12      0.88767065631695
  13    -0.093357650779426
 Sym= A
 Ene=               8
 Spin= Alpha
 Occup=    0.00000
   1    0.0074991688322704
   2    -0.015653416871164
   3      0.22461842838982
   4    -0.0066511064227986
   5      -0.2987577774289
   6      0.64826902507733
   7    0.0075980131110356
   8     -0.34036488880037
   9     -0.54843441863974
  10      0.92537140680001
  11     -0.37178294969116
  12      0.13242819631794
  13      -0.7509686391933
 Sym= A
 Ene=               9
 Spin= Alpha
 Occup=    0.00000
   1    -0.0033861079339025
   2    0.0096929223106003
   3     0.032448524791056
   4      -0.9273542285472
   5    0.0093905037212417
   6    -0.0076424119607305
   7       1.0593800698982
   8    0.0017664870412919
   9    -0.016781486850649
  10     -0.04669460155756
  11     0.022688788538691
  12     0.031510808340622
  13    -0.080434083482536
 Sym= A
 Ene=              10
 Spin= Alpha
 Occup=    0.00000
   1     0.068736341928043
   2     -0.43501610935346
   3      0.14608520598882
   4    -0.010207822603096
   5     0.061885913344642
   6     -0.51406389998815
   7     0.011661092913453
   8     -0.23330375971982
   9       1.0575140609659
  10      0.89340304169145
  11     -0.37063377042544
  12      0.49297125241443
  13     -0.14943621420145
 Sym= A
 Ene=              11
 Spin= Alpha
 Occup=    0.00000
   1    -0.011633083296326
   2     0.090627363659177
   3     -0.10508438633859
   4    -0.030924623184808
   5     -0.68761927560894
   6     -0.10574326213975
   7     0.035327309093567
   8       1.1112212827912
   9     0.033668293026281
  10      0.36202193039123
  11      -1.3370240525231
  12      -0.7030853403266
  13        1.612425439023
 Sym= A
 Ene=              12
 Spin= Alpha
 Occup=    0.00000
   1     0.044554252056724
   2      -1.6392059369349
   3       2.8323413027099
   4    0.00022338131766364
   5    -0.069852474204814
   6      0.14167970014393
   7    -0.00025518373523123
   8    -0.042979678988656
   9     -0.86602874149961
  10     -0.43886274108961
  11     -0.59997057065954
  12     -0.53594906398579
  13      -0.7404184836894
