[Molden Format]
made by pyscf v[2.11.0]
[Atoms] (AU)
O   1   8     0.00000000000000     0.00000000000000     0.22166487441148
H   2   1     0.00000000000000     1.43090062152066    -0.88665949764593
H   3   1     0.00000000000000    -1.43090062152066    -0.88665949764593
[GTO]
1 0
 s    6 1.00
             5484.6717   0.001831099805527
             825.23495   0.013950098518422
             188.04696    0.06844509273075
               52.9645    0.23271427528445
              16.89757    0.47019295006289
             5.7996353    0.35852086192309
 s    3 1.00
             15.539616   -0.11077750382508
             3.5999336   -0.14802630511126
             1.0137618     1.1307670390447
 s    1 1.00
             0.2700058                   1
 p    3 1.00
             15.539616   0.070874299543311
             3.5999336    0.33975279781076
             1.0137618    0.72715859531445
 p    1 1.00
             0.2700058                   1

2 0
 s    3 1.00
             18.731137    0.03349459952309
             2.8253937    0.23472694665786
             0.6401217    0.81375731841339
 s    1 1.00
             0.1612778                   1

3 0
 s    3 1.00
             18.731137    0.03349459952309
             2.8253937    0.23472694665786
             0.6401217    0.81375731841339
 s    1 1.00
             0.1612778                   1

[5d]
[7f]
[9g]

[MO]
 Sym= A
 Ene=               0
 Spin= Alpha
 Occup=    1.00000
   1    -0.082410966060783
   2      0.20465079753308
   3      0.27490937980564
   4    9.005762224101e-16
   5    5.2151260572142e-14
   6      0.61197446936963
   7    5.3052364611431e-16
   8    2.3497617300902e-14
   9      0.35474088445098
  10     -0.13602817398304
  11    -0.047689640521446
  12     -0.13602817398309
  13    -0.047689640521455
 Sym= A
 Ene=               1
 Spin= Alpha
 Occup=    1.00000
   1    1.7996288225494e-14
   2    -3.3921334944497e-14
   3    -3.971027343863e-14
   4    -6.0288785165138e-17
   5      0.57436908081101
   6    -5.0208318470401e-14
   7    1.9922711652116e-17
   8      0.24865651500292
   9    -2.9519475750091e-14
  10      0.26427854580241
  11     0.062783760893872
  12     -0.26427854580239
  13    -0.062783760893862
 Sym= A
 Ene=               2
 Spin= Alpha
 Occup=    1.00000
   1      -0.2026031558079
   2      0.49524921002014
   3      0.45602976538721
   4    -8.7268996157985e-18
   5    1.7859112562285e-14
   6      -0.1527734594721
   7    -5.76712132552e-18
   8    8.2374002339679e-15
   9    -0.067047091480773
  10      0.14757242823218
  11    -0.023315201605277
  12      0.14757242823216
  13    -0.023315201605278
 Sym= A
 Ene=               3
 Spin= Alpha
 Occup=    1.00000
   1      0.99764857483159
   2     0.021312966170775
   3    -0.018252639579466
   4    1.1799593549963e-19
   5    -2.1971185448332e-15
   6    -0.0002961148862573
   7    2.6234977276368e-19
   8    -9.5861695526037e-16
   9    0.0035756037294512
  10    -0.0016042420653144
  11    0.0032617172197852
  12    -0.0016042420653124
  13    0.0032617172197856
 Sym= A
 Ene=               4
 Spin= Alpha
 Occup=    1.00000
   1    -0.094628161619126
   2      0.26495053012669
   3      0.91916559862628
   4    -3.5158464501523e-14
   5    8.066991701002e-14
   6     -0.34515632626883
   7    -1.4801626132343e-14
   8    1.0948671540199e-13
   9     -0.32371228281463
  10     -0.19956453079476
  11     -0.81917941650135
  12     -0.19956453079467
  13     -0.81917941650099
 Sym= A
 Ene=               5
 Spin= Alpha
 Occup=    0.00000
   1    2.4691527440603e-14
   2    -1.5212995489048e-13
   3    1.3922348127648e-14
   4    -8.1996164802556e-12
   5      0.53144308540435
   6    1.2241331199239e-13
   7    -5.4517299829357e-12
   8       0.6960638341145
   9    1.9311948522526e-14
  10     -0.51587916800666
  11     -0.78278101079988
  12      0.51587916800697
  13      0.78278101079987
 Sym= A
 Ene=               6
 Spin= Alpha
 Occup=    0.00000
   1     0.023609631381712
   2     -0.26053521676927
   3      0.58674672304241
   4    4.3843594817139e-13
   5    -1.6669388340211e-13
   6      0.74377651026462
   7    -2.028097329896e-13
   8    1.8726944947593e-14
   9     -0.63618547759998
  10      0.64792965280919
  11     -0.74992572562954
  12      0.64792965280856
  13     -0.74992572562887
 Sym= A
 Ene=               7
 Spin= Alpha
 Occup=    0.00000
   1     0.058362275162897
   2      -1.6980916913236
   3       2.7763054784483
   4    1.6884520699705e-12
   5    3.7458695186445e-12
   6     0.003320657646631
   7    -1.3047323452989e-12
   8    -7.0389747995448e-12
   9     -0.60400134222539
  10     -0.37829965721104
  11     -0.65288898453521
  12     -0.37829965720973
  13     -0.65288898454627
 Sym= A
 Ene=               8
 Spin= Alpha
 Occup=    0.00000
   1    0.0058972647318767
   2    -0.012277865382889
   3    -0.040184160738122
   4      0.26109747171904
   5    -0.00048433960791317
   6    -0.050925741148489
   7      0.19657869526865
   8     -0.19843208665956
   9      0.11624279494567
  10      0.83250792277776
  11      -1.0363805973681
  12     -0.68778963699729
  13       1.0201284293947
 Sym= A
 Ene=               9
 Spin= Alpha
 Occup=    0.00000
   1    9.3357032184158e-14
   2    -2.5644461155704e-12
   3    4.230038353334e-12
   4      -0.9515194143972
   5    -2.1059719841456e-13
   6    2.3014275972915e-13
   7       1.0449539019899
   8    -1.8653977048421e-13
   9    -1.068928975447e-12
  10    -5.6870115356825e-13
  11    -2.6981087870781e-13
  12    -1.3718896858739e-13
  13    -2.0834590863934e-12
 Sym= A
 Ene=              10
 Spin= Alpha
 Occup=    0.00000
   1     0.062333918326973
   2     -0.12977668338347
   3     -0.42474542139515
   4     -0.14502422276687
   5    1.1986302061006e-06
   6     -0.53828361686658
   7     -0.10918785350944
   8    0.00049107506289535
   9       1.2286829938523
  10      0.76295285750075
  11    -0.083347773541116
  12      0.76671525416132
  13    -0.088437173740865
 Sym= A
 Ene=              11
 Spin= Alpha
 Occup=    0.00000
   1    2.3873280995287e-13
   2    -6.9590658238086e-12
   3    1.1348281707059e-11
   4    2.127874089062e-12
   5     -0.91579698118576
   6    -6.6187361979584e-14
   7    1.6150171567466e-12
   8       1.7599240570386
   9    -2.4046888031066e-12
  10    -0.045158767876374
  11      -1.0550637437934
  12     0.045158767873149
  13       1.0550637437882
 Sym= A
 Ene=              12
 Spin= Alpha
 Occup=    0.00000
   1      0.01283527995842
   2    -0.026722530973908
   3    -0.087460030448225
   4       0.5843399731136
   5    0.0002167123411472
   6     -0.11083886758584
   7      0.43994600465154
   8     0.088786214024352
   9       0.2530001422921
  10     -0.18263181293626
  11       0.4423947009031
  12      0.49760829738859
  13     -0.47776722280007
