[Molden Format]
made by pyscf v[2.11.0]
[Atoms] (AU)
O   1   8     0.00000000000000     0.00000000000000     0.22166487441148
H   2   1     0.00000000000000     1.43090062152066    -0.88665949764593
H   3   1     0.00000000000000    -1.43090062152066    -0.88665949764593
[GTO]
1 0
 s    6 1.00
             5484.6717   0.001831099805527
             825.23495   0.013950098518422
             188.04696    0.06844509273075
               52.9645    0.23271427528445
              16.89757    0.47019295006289
             5.7996353    0.35852086192309
 s    3 1.00
             15.539616   -0.11077750382508
             3.5999336   -0.14802630511126
             1.0137618     1.1307670390447
 s    1 1.00
             0.2700058                   1
 p    3 1.00
             15.539616   0.070874299543311
             3.5999336    0.33975279781076
             1.0137618    0.72715859531445
 p    1 1.00
             0.2700058                   1

2 0
 s    3 1.00
             18.731137    0.03349459952309
             2.8253937    0.23472694665786
             0.6401217    0.81375731841339
 s    1 1.00
             0.1612778                   1

3 0
 s    3 1.00
             18.731137    0.03349459952309
             2.8253937    0.23472694665786
             0.6401217    0.81375731841339
 s    1 1.00
             0.1612778                   1

[5d]
[7f]
[9g]

[MO]
 Sym= A
 Ene=               0
 Spin= Alpha
 Occup=    1.00000
   1    4.3354643450177e-14
   2    -6.7903798810746e-14
   3    -4.2922765934236e-15
   4      0.73243034871796
   5    2.3503084953214e-13
   6    5.5534573628689e-13
   7      0.40628358319091
   8    1.0020875421374e-13
   9    3.0115219627759e-13
  10    -6.2299304154782e-14
  11    -8.9014056362445e-16
  12    -2.6006051077784e-13
  13    -4.0851511432864e-14
 Sym= A
 Ene=               1
 Spin= Alpha
 Occup=    1.00000
   1    -6.4241645428701e-14
   2    1.0930009740013e-13
   3    6.1427138901879e-14
   4    -2.8904114560297e-13
   5      0.59465199741305
   6    -3.7642028043895e-13
   7    -1.6050021101225e-13
   8      0.25436616073005
   9    -2.0285611856841e-13
  10      0.25029369886528
  11     0.050747671287583
  12     -0.25029369886504
  13    -0.050747671287563
 Sym= A
 Ene=               2
 Spin= Alpha
 Occup=    1.00000
   1    -0.079341147643942
   2      0.20310389408887
   3      0.25544814840322
   4    -5.703549570547e-13
   5    2.9778342946443e-13
   6      0.62746071689003
   7    -3.1631805089341e-13
   8     1.27114682415e-13
   9      0.34531598115635
  10     -0.13562148877488
  11    -0.044140484380368
  12     -0.13562148877513
  13    -0.044140484380419
 Sym= A
 Ene=               3
 Spin= Alpha
 Occup=    1.00000
   1     -0.31882855583047
   2      0.51265332598838
   3      0.46311435821856
   4    3.1891708605983e-13
   5    -2.4221471556404e-13
   6     -0.15149866592241
   7    1.7689869913808e-13
   8    -1.0403426431885e-13
   9    -0.073337543715485
  10      0.12666363145031
  11    -0.030575229678009
  12      0.12666363145051
  13    -0.030575229677969
 Sym= A
 Ene=               4
 Spin= Alpha
 Occup=    1.00000
   1      0.96774875816493
   2     0.080589131402231
   3     0.033273479516953
   4    2.5530810037909e-14
   5    -1.5909351824901e-14
   6    -0.017495445181267
   7    1.4162432947925e-14
   8    -6.85665683963e-15
   9    -0.0045765264537896
  10     0.012857860430827
  11    7.4783632484684e-05
  12      0.01285786043084
  13    7.4783632487252e-05
 Sym= A
 Ene=               5
 Spin= Alpha
 Occup=    0.00000
   1    9.6737136015818e-14
   2    -1.6706532114138e-13
   3    -1.2276888059952e-12
   4    1.9617215547256e-14
   5       0.6503810418398
   6    9.9056317895737e-14
   7    -2.3681544652818e-14
   8      0.37494217512948
   9    7.0510177830606e-13
  10     -0.41514032328784
  11     -0.72623887514592
  12      0.41514032328831
  13       0.7262388751479
 Sym= A
 Ene=               6
 Spin= Alpha
 Occup=    0.00000
   1    3.6193346570046e-14
   2    -2.4608074547255e-12
   3    4.0879428109391e-12
   4     -0.89419913853531
   5    4.3436815569547e-13
   6    -1.8662255982993e-12
   7       1.0821182768579
   8    -5.5183946596751e-13
   9    5.1969622577498e-13
  10    -2.6434378099143e-12
  11    1.4347360275858e-12
  12    -1.0994625888822e-12
  13    -1.491339172402e-12
 Sym= A
 Ene=               7
 Spin= Alpha
 Occup=    0.00000
   1    -0.092489219771691
   2      0.28998969780121
   3      0.86210654764864
   4    3.6456572865693e-13
   5    -0.017526043553076
   6     -0.32656348547633
   7    -4.409669503971e-13
   8     0.041644760434756
   9     -0.32972029961138
  10     -0.21393726572074
  11     -0.82611267531273
  12     -0.19989451311285
  13     -0.78537183392819
 Sym= A
 Ene=               8
 Spin= Alpha
 Occup=    0.00000
   1    0.0035000025374373
   2     0.019313144579565
   3     -0.20825905088385
   4    7.3105520617103e-13
   5     -0.68104034326206
   6     -0.35789551627792
   7    -8.8477703922027e-13
   8       1.6659308172925
   9      0.41195420723952
  10      -0.5241927273229
  11     -0.41522521139789
  12      0.22397364107645
  13       0.9525204207174
 Sym= A
 Ene=               9
 Spin= Alpha
 Occup=    0.00000
   1    -0.0035153108522233
   2     -0.48542056176789
   3       1.0924014695494
   4    6.2673613414215e-13
   5      0.16309265456398
   6      0.40021840256487
   7    -7.5816022847745e-13
   8    -0.020849691086224
   9     -0.83614066209974
  10     -0.98898805982942
  11      0.69770074444587
  12      0.43795848938578
  13      -1.3383638627307
 Sym= A
 Ene=              10
 Spin= Alpha
 Occup=    0.00000
   1     0.072843096275573
   2     -0.60358974615114
   3      0.54335427839411
   4    6.6960925167587e-14
   5     0.048757133591766
   6     -0.16613094619111
   7    -8.1148680585265e-14
   8    -0.017476738790791
   9      0.66274313598107
  10      0.65591765113864
  11     -0.27342323491202
  12       1.0347470827523
  13     -0.83130535249001
 Sym= A
 Ene=              11
 Spin= Alpha
 Occup=    0.00000
   1    0.0033104273608884
   2     -0.22996115886351
   3      0.66497783276665
   4    -1.8932915845711e-12
   5     -0.42537104289197
   6      0.72524499411637
   7    2.2911061771896e-12
   8      0.83707891785666
   9     -0.86581493992795
  10      0.46321396747335
  11      -1.4485215799237
  12     0.066307298912024
  13      0.32506576618116
 Sym= A
 Ene=              12
 Spin= Alpha
 Occup=    0.00000
   1      0.04201332907281
   2       -1.509650780959
   3       2.5243509486234
   4    1.5971568519183e-12
   5    -0.019219291619998
   6     -0.09682747244445
   7    -1.9327125724934e-12
   8    -0.084506348290765
   9     -0.54846365762931
  10     -0.27665444509989
  11     -0.78842323870575
  12      -0.8142171383667
  13     -0.15552637596126
