[Molden Format]
made by pyscf v[2.11.0]
[Atoms] (AU)
O   1   8     0.00000000000000     0.00000000000000     0.22166487441148
H   2   1     0.00000000000000     1.43090062152066    -0.88665949764593
H   3   1     0.00000000000000    -1.43090062152066    -0.88665949764593
[GTO]
1 0
 s    6 1.00
             5484.6717   0.001831099805527
             825.23495   0.013950098518422
             188.04696    0.06844509273075
               52.9645    0.23271427528445
              16.89757    0.47019295006289
             5.7996353    0.35852086192309
 s    3 1.00
             15.539616   -0.11077750382508
             3.5999336   -0.14802630511126
             1.0137618     1.1307670390447
 s    1 1.00
             0.2700058                   1
 p    3 1.00
             15.539616   0.070874299543311
             3.5999336    0.33975279781076
             1.0137618    0.72715859531445
 p    1 1.00
             0.2700058                   1

2 0
 s    3 1.00
             18.731137    0.03349459952309
             2.8253937    0.23472694665786
             0.6401217    0.81375731841339
 s    1 1.00
             0.1612778                   1

3 0
 s    3 1.00
             18.731137    0.03349459952309
             2.8253937    0.23472694665786
             0.6401217    0.81375731841339
 s    1 1.00
             0.1612778                   1

[5d]
[7f]
[9g]

[MO]
 Sym= A
 Ene=               0
 Spin= Alpha
 Occup=    1.00000
   1     -0.12324117462167
   2      0.39590924808402
   3      0.42033256602909
   4    -1.0227512272386e-12
   5    4.808425072292e-14
   6      0.51193531080709
   7    -5.6731111806884e-13
   8    2.1620886450285e-14
   9      0.28612784923512
  10    -0.072581027300204
  11    -0.052505094063852
  12    -0.072581027300244
  13    -0.052505094063858
 Sym= A
 Ene=               1
 Spin= Alpha
 Occup=    1.00000
   1    -2.0074555067634e-13
   2    4.9539386353552e-13
   3    5.4149108815433e-13
   4      0.73243034871795
   5    1.770162551587e-12
   6    7.7304722312155e-13
   7      0.40628358319092
   8    7.5703103956716e-13
   9    4.300865125436e-13
  10    6.1876050932358e-13
  11    7.8798894946111e-14
  12    -8.7124856415255e-13
  13    -2.2291088927138e-13
 Sym= A
 Ene=               2
 Spin= Alpha
 Occup=    1.00000
   1     -0.10248916162031
   2      0.39185903726009
   3      0.31860453367214
   4    5.1428955579128e-14
   5     0.015616075717725
   6     -0.39339789195867
   7     2.85015485919e-14
   8    0.0066798753611663
   9     -0.20667080095485
  10      0.17757473524983
  11    -0.0082912624806732
  12      0.16442887726851
  13    -0.010956617951679
 Sym= A
 Ene=               3
 Spin= Alpha
 Occup=    1.00000
   1     0.011837768353179
   2    -0.010406718353836
   3    -0.0088293746603987
   4    -2.1815440618629e-12
   5      0.59442251429362
   6     0.010372997604017
   7    -1.2102833390618e-12
   8      0.25426799787128
   9    0.0054794715234897
  10      0.24562799872967
  11     0.051033545999992
  12     -0.25476621650387
  13    -0.050422628342433
 Sym= A
 Ene=               4
 Spin= Alpha
 Occup=    1.00000
   1       1.0092828030442
   2    -0.012381233921713
   3    -0.050690402958174
   4    5.1596415750747e-14
   5    -0.0053861588680699
   6    0.0041981770497006
   7    2.8624169639552e-14
   8    -0.0023039635926783
   9    0.0055205136686254
  10    -0.010733970992821
  11    0.0053484587864254
  12    -0.006199817801948
  13     0.006267769646991
 Sym= A
 Ene=               5
 Spin= Alpha
 Occup=    0.00000
   1    -5.5464056722969e-13
   2    1.7161524240996e-12
   3    5.196959919439e-12
   4     -0.89419913853531
   5    7.521756581211e-13
   6    -1.1774483413489e-12
   7       1.0821182768579
   8    4.2876085940656e-12
   9    -2.9003799461646e-12
  10    -1.3036292637489e-12
  11    -1.1830977736284e-11
  12    -1.4516490926349e-12
  13    2.3328355391393e-12
 Sym= A
 Ene=               6
 Spin= Alpha
 Occup=    0.00000
   1     0.076565963494942
   2     -0.67364311703279
   3      0.35721608585203
   4    -1.3031687225064e-12
   5    9.6691194811048e-13
   6     -0.67224591856064
   7    1.577188237488e-12
   8    1.4554819818471e-12
   9       1.1138002099791
  10      0.35710528314936
  11      0.01293514234291
  12      0.35710528315013
  13     0.012935142348342
 Sym= A
 Ene=               7
 Spin= Alpha
 Occup=    0.00000
   1    -0.080007083035147
   2      0.25464116151619
   3      0.73858600278606
   4    5.8130327910337e-12
   5    -0.096965963658557
   6     -0.41662290044984
   7    -7.0348482510087e-12
   8      0.61171804076264
   9     -0.12796459803548
  10     -0.26747545676235
  11      -1.2258742627025
  12    -0.054401362736084
  13     -0.18443126557177
 Sym= A
 Ene=               8
 Spin= Alpha
 Occup=    0.00000
   1    0.0065323916630687
   2      0.50687221576359
   3     -0.89448545555333
   4    -7.8428332352059e-13
   5     -0.54327387295552
   6      0.17219483370761
   7    9.4896919685895e-13
   8      0.11800754627579
   9      0.34775951741765
  10       1.1745345838958
  11     -0.28219158122592
  12      0.41016921595248
  13     -0.18965129874575
 Sym= A
 Ene=               9
 Spin= Alpha
 Occup=    0.00000
   1     0.034918902460065
   2     -0.33340612661014
   3      0.27679775398698
   4    2.544603833468e-12
   5     0.033976493202511
   6      0.26852005582131
   7    -3.0794021275299e-12
   8      0.63718591304258
   9     -0.14680344584533
  10      0.52949870765882
  11        -1.58921551463
  12     -0.13114031342989
  13       1.3876842796534
 Sym= A
 Ene=              10
 Spin= Alpha
 Occup=    0.00000
   1    -0.022788968346921
   2     -0.20683319829384
   3      0.67360222734418
   4    2.4063899087141e-13
   5     0.037499781301086
   6     -0.17920730934331
   7    -2.9136797394939e-13
   8      -1.1228270917643
   9     -0.22030924592924
  10      0.40874439633392
  11    -0.017658745092868
  12      -1.2458811850777
  13     -0.16596857543797
 Sym= A
 Ene=              11
 Spin= Alpha
 Occup=    0.00000
   1    -0.002064729005643
   2     -0.10444397726771
   3     0.032233268836075
   4    -7.6796262910276e-13
   5     -0.87481615403349
   6     -0.13475238967387
   7    9.2946315953002e-13
   8       1.2514290380469
   9     -0.03458766006181
  10     -0.36589939433392
  11     -0.26164700404388
  12     -0.56933436155991
  13       1.0460623208857
 Sym= A
 Ene=              12
 Spin= Alpha
 Occup=    0.00000
   1     0.040149426527533
   2      -1.4408135083778
   3       2.6617860202444
   4    -2.7199936907358e-13
   5     -0.15808905748882
   6       0.4246719545527
   7    3.2916495319287e-13
   8     0.072650168525489
   9      -1.0090010208371
  10     -0.17999123469457
  11     -0.69765718298422
  12    -0.0060880745594554
  13      -1.2434066773752
