[Molden Format]
made by pyscf v[2.11.0]
[Atoms] (AU)
O   1   8     0.00000000000000     0.00000000000000     0.22166487441148
H   2   1     0.00000000000000     1.43090062152066    -0.88665949764593
H   3   1     0.00000000000000    -1.43090062152066    -0.88665949764593
[GTO]
1 0
 s    6 1.00
             5484.6717   0.001831099805527
             825.23495   0.013950098518422
             188.04696    0.06844509273075
               52.9645    0.23271427528445
              16.89757    0.47019295006289
             5.7996353    0.35852086192309
 s    3 1.00
             15.539616   -0.11077750382508
             3.5999336   -0.14802630511126
             1.0137618     1.1307670390447
 s    1 1.00
             0.2700058                   1
 p    3 1.00
             15.539616   0.070874299543311
             3.5999336    0.33975279781076
             1.0137618    0.72715859531445
 p    1 1.00
             0.2700058                   1

2 0
 s    3 1.00
             18.731137    0.03349459952309
             2.8253937    0.23472694665786
             0.6401217    0.81375731841339
 s    1 1.00
             0.1612778                   1

3 0
 s    3 1.00
             18.731137    0.03349459952309
             2.8253937    0.23472694665786
             0.6401217    0.81375731841339
 s    1 1.00
             0.1612778                   1

[5d]
[7f]
[9g]

[MO]
 Sym= A
 Ene=               0
 Spin= Alpha
 Occup=    1.00000
   1    2.3360573594387e-13
   2    -5.8029539545752e-13
   3    -7.4020987749055e-13
   4      0.73243034871795
   5    -1.7579916792561e-13
   6    -1.8817597476407e-12
   7      0.40628358319092
   8    -7.5366419238082e-14
   9    -1.0349319722845e-12
  10    3.3749958594274e-13
  11    1.1521162869548e-13
  12    4.8563167316465e-13
  13    1.4563904778222e-13
 Sym= A
 Ene=               1
 Spin= Alpha
 Occup=    1.00000
   1    1.4581214533506e-13
   2    -4.1602345478036e-13
   3    -4.3863523230272e-13
   4    2.1683231311577e-13
   5      0.59465199741304
   6    -4.9484455763879e-13
   7    1.2011001037572e-13
   8      0.25436616073006
   9    -2.7681807814139e-13
  10      0.25029369886522
  11     0.050747671287625
  12     -0.25029369886509
  13    -0.050747671287518
 Sym= A
 Ene=               2
 Spin= Alpha
 Occup=    1.00000
   1    -0.079460875528708
   2      0.20324661263217
   3      0.25557827534577
   4    2.1875929918975e-12
   5    5.3442622692812e-13
   6      0.62741832072212
   7    1.2134939981068e-12
   8    2.294941164533e-13
   9      0.34529533788646
  10     -0.13558600451266
  11    -0.044149143479583
  12     -0.13558600451311
  13    -0.044149143479673
 Sym= A
 Ene=               3
 Spin= Alpha
 Occup=    1.00000
   1     -0.21861871545444
   2       0.5181378066821
   3      0.46402426953825
   4    -3.7270883826574e-14
   5    2.6713813730503e-13
   6     -0.15266749631124
   7    -2.0688438546451e-14
   8    1.1486247002799e-13
   9    -0.073518604120244
  10      0.12735231013801
  11      -0.0303964286177
  12      0.12735231013779
  13    -0.030396428617744
 Sym= A
 Ene=               4
 Spin= Alpha
 Occup=    1.00000
   1      0.99517644222793
   2     0.027986787621739
   3    -0.014036103475434
   4    -5.4480641618561e-15
   5    1.4261257751539e-14
   6    -0.0019426813445482
   7    -3.021128381998e-15
   8    6.0990300774982e-15
   9    0.0029344908697696
  10    -0.00011316971859065
  11    0.0031847890184684
  12    -0.00011316971860264
  13     0.003184789018466
 Sym= A
 Ene=               5
 Spin= Alpha
 Occup=    0.00000
   1    -2.4323601075666e-14
   2    3.9784594239621e-14
   3    3.9383910883701e-13
   4    -1.4354815471442e-13
   5      0.65038104184021
   6    -1.0890013554907e-13
   7    1.7374827944147e-13
   8      0.37494217512878
   9    -4.9325272866766e-14
  10     -0.41514032328842
  11     -0.72623887514621
  12      0.41514032328862
  13      0.72623887514535
 Sym= A
 Ene=               6
 Spin= Alpha
 Occup=    0.00000
   1    2.4539090833868e-14
   2    -2.5698472759712e-12
   3    4.7194310295281e-12
   4     -0.89419913853531
   5    6.2199926933838e-14
   6    -8.8644193399111e-13
   7       1.0821182768579
   8    -8.9953045854901e-13
   9    -7.0702895917581e-13
  10    -5.9376341514804e-13
  11    -1.3126037267873e-12
  12    -2.7444138833129e-12
  13    7.0929383589235e-14
 Sym= A
 Ene=               7
 Spin= Alpha
 Occup=    0.00000
   1    -0.091157421220379
   2        0.274660839231
   3      0.87958791345544
   4    3.8904744480015e-13
   5    -0.034990591856399
   6     -0.32758654452502
   7    -4.7105262016616e-13
   8     0.060293457115688
   9     -0.32363105103559
  10     -0.16217879656548
  11     -0.90720830195555
  12     -0.23120572519568
  13     -0.72261750681077
 Sym= A
 Ene=               8
 Spin= Alpha
 Occup=    0.00000
   1    0.0073406533286702
   2     -0.34677179309058
   3      0.45953040578129
   4    5.4469642306608e-13
   5      -0.6611529907258
   6     -0.34865251332507
   7    -6.5900598997499e-13
   8       1.5599663425802
   9      0.15925874921873
  10     -0.64074214279953
  11     -0.60313114409846
  12     -0.15789704172829
  13      0.98367237331417
 Sym= A
 Ene=               9
 Spin= Alpha
 Occup=    0.00000
   1     -0.01592437261942
   2      0.63931121898351
   3      -1.0749821714287
   4    -2.0043319958252e-13
   5     -0.38285744618765
   6      0.17612986798631
   7    2.4239963492514e-13
   8      0.53121080526848
   9      0.10552199404883
  10      0.92005876335572
  11      -1.1244430056606
  12     -0.38107935367783
  13       1.4759683910473
 Sym= A
 Ene=              10
 Spin= Alpha
 Occup=    0.00000
   1     0.072900900654436
   2     -0.47592835304268
   3      0.19647188241658
   4    3.4431087161487e-14
   5    -0.030631782324561
   6     -0.41390261917064
   7    -4.1619171689136e-14
   8     0.035193223198236
   9       1.0065317252639
  10      0.85715595127091
  11     -0.44630666556255
  12      0.72201050576278
  13      -0.2052291558832
 Sym= A
 Ene=              11
 Spin= Alpha
 Occup=    0.00000
   1    0.0076191207104644
   2    -0.043531221412252
   3      0.25287111291934
   4    -1.4947362887021e-12
   5     -0.29755847525592
   6      0.63116628869846
   7    1.8088458570023e-12
   8      0.85961567644611
   9     -0.56070357654052
  10     0.037382312723262
  11      -0.5248099755818
  12      0.92388671660593
  13     -0.52251740377556
 Sym= A
 Ene=              12
 Spin= Alpha
 Occup=    0.00000
   1     0.040881781167634
   2      -1.4776797652367
   3       2.6166281439344
   4    1.4458634006674e-12
   5    0.0016412349932684
   6      0.35816688961815
   7    -1.7497535626946e-12
   8     -0.16170798674371
   9     -0.99924941708973
  10     0.022428386299885
  11      -1.1002115206745
  12       -0.649232243312
  13     -0.39093881785379
