[Molden Format]
made by pyscf v[2.11.0]
[Atoms] (AU)
O   1   8     0.00000000000000     0.00000000000000     0.22166487441148
H   2   1     0.00000000000000     1.43090062152066    -0.88665949764593
H   3   1     0.00000000000000    -1.43090062152066    -0.88665949764593
[GTO]
1 0
 s    6 1.00
             5484.6717   0.001831099805527
             825.23495   0.013950098518422
             188.04696    0.06844509273075
               52.9645    0.23271427528445
              16.89757    0.47019295006289
             5.7996353    0.35852086192309
 s    3 1.00
             15.539616   -0.11077750382508
             3.5999336   -0.14802630511126
             1.0137618     1.1307670390447
 s    1 1.00
             0.2700058                   1
 p    3 1.00
             15.539616   0.070874299543311
             3.5999336    0.33975279781076
             1.0137618    0.72715859531445
 p    1 1.00
             0.2700058                   1

2 0
 s    3 1.00
             18.731137    0.03349459952309
             2.8253937    0.23472694665786
             0.6401217    0.81375731841339
 s    1 1.00
             0.1612778                   1

3 0
 s    3 1.00
             18.731137    0.03349459952309
             2.8253937    0.23472694665786
             0.6401217    0.81375731841339
 s    1 1.00
             0.1612778                   1

[5d]
[7f]
[9g]

[MO]
 Sym= A
 Ene=               0
 Spin= Alpha
 Occup=    1.00000
   1    -0.069059603892449
   2      0.17839344502673
   3      0.23324066548922
   4    3.9226860226203e-13
   5    -3.2032967089092e-14
   6      0.63396430515659
   7    2.1761724729427e-13
   8    -1.2841551250087e-14
   9      0.34839857291886
  10     -0.14148448503165
  11    -0.042655107652396
  12     -0.14148448503163
  13    -0.042655107652389
 Sym= A
 Ene=               1
 Spin= Alpha
 Occup=    1.00000
   1    3.5636096661625e-14
   2    -8.3953675691563e-14
   3    -7.2732238144989e-14
   4    2.4224015512738e-13
   5      0.59465199741304
   6    5.6338149836012e-14
   7    1.3420389535972e-13
   8      0.25436616073006
   9    2.9444506619692e-14
  10      0.25029369886513
  11     0.050747671287575
  12     -0.25029369886519
  13    -0.050747671287568
 Sym= A
 Ene=               2
 Spin= Alpha
 Occup=    1.00000
   1     -0.20933590457453
   2      0.52752695787153
   3      0.47542539196626
   4    1.0263809960531e-12
   5    1.0558939311787e-13
   6     -0.12269493608695
   7    5.6932686229007e-13
   8    4.5800520829078e-14
   9    -0.056984673891757
  10      0.12075395562964
  11     -0.03241643288412
  12      0.12075395562955
  13    -0.032416432884136
 Sym= A
 Ene=               3
 Spin= Alpha
 Occup=    1.00000
   1    3.5199636231277e-13
   2    -8.3413153709409e-13
   3    -7.9193968241065e-13
   4      0.73243034871795
   5    -1.9624595631153e-13
   6    -1.6763496571949e-13
   7      0.40628358319092
   8    -8.4112662559574e-14
   9    -1.0655727103281e-13
  10    -1.7602427520282e-13
  11    5.1475347384685e-14
  12    -1.067976014988e-14
  13    8.5392629115152e-14
 Sym= A
 Ene=               4
 Spin= Alpha
 Occup=    1.00000
   1      0.99794467522922
   2     0.021220745309101
   3    -0.020131527161851
   4    -1.5890828673812e-14
   5    -1.2651699453385e-15
   6    -0.00031632965756345
   7    -8.813625332883e-15
   8    -5.5058213930323e-16
   9    0.0036943313510525
  10    -0.0016766096001733
  11    0.0035985127512407
  12    -0.0016766096001722
  13    0.0035985127512409
 Sym= A
 Ene=               5
 Spin= Alpha
 Occup=    0.00000
   1    -0.091713432715681
   2      0.28162736762584
   3      0.85506471219556
   4    -2.1749369928741e-14
   5    2.0137127653242e-13
   6     -0.37177425162698
   7    2.6086868436009e-14
   8    2.1292615935468e-13
   9     -0.28133553022191
  10     -0.22641602522474
  11     -0.77857847768534
  12     -0.22641602522456
  13     -0.77857847768449
 Sym= A
 Ene=               6
 Spin= Alpha
 Occup=    0.00000
   1    4.0447139501824e-14
   2    -2.1339057261801e-13
   3    -2.2256433160368e-13
   4    -1.661282238849e-14
   5      0.58822609486775
   6    1.6105777047782e-16
   7    2.0146953090771e-14
   8      0.52361722473478
   9    2.3263945270254e-13
  10     -0.45411422733889
  11     -0.77576143357027
  12      0.45411422733891
  13      0.77576143357098
 Sym= A
 Ene=               7
 Spin= Alpha
 Occup=    0.00000
   1     0.033206136392566
   2     -0.63074466192898
   3       1.2303518334075
   4    -6.3189348234338e-13
   5    -5.0771057992421e-14
   6      0.67779363742306
   7    7.6458112638379e-13
   8    1.9290256522054e-13
   9     -0.71862186885917
  10      0.57068388439655
  11     -0.91879003609352
  12      0.57068388439603
  13     -0.91879003609224
 Sym= A
 Ene=               8
 Spin= Alpha
 Occup=    0.00000
   1    -2.9579937014179e-14
   2    1.110642502537e-12
   3    -2.1243274962405e-12
   4     -0.89419913853531
   5    5.0589183467117e-13
   6    -5.3202459272586e-13
   7       1.0821182768579
   8    -6.3444022129633e-13
   9    1.0049027344557e-12
  10    -1.0839259370226e-12
  11    2.874057237064e-12
  12    1.0898701033515e-12
  13    -1.1541916832906e-12
 Sym= A
 Ene=               9
 Spin= Alpha
 Occup=    0.00000
   1     0.024275717422159
   2      -1.4354348481303
   3       2.5638062800623
   4    -4.3903290751211e-13
   5    3.3722860098952e-13
   6     0.067334546244653
   7    5.3137863735741e-13
   8    -2.4620021903769e-12
   9     -0.89620720654339
  10     -0.76597509524542
  11     -0.41185985916069
  12     -0.76597509525369
  13     -0.41185985915236
 Sym= A
 Ene=              10
 Spin= Alpha
 Occup=    0.00000
   1      0.07453059200512
   2     -0.69171474267151
   3      0.52112382436676
   4    1.5389393146433e-14
   5    -0.0026264161168448
   6      -0.5962556137103
   7    -1.8518787741848e-14
   8    -0.0024806820440888
   9       1.0333973546763
  10      0.52930081524455
  11     -0.24436255430557
  12      0.48979915485409
  13     -0.19104994351296
 Sym= A
 Ene=              11
 Spin= Alpha
 Occup=    0.00000
   1    -1.6368962582923e-07
   2    1.5191940934632e-06
   3    -1.1445284660979e-06
   4    -3.7728681685788e-13
   5     -0.85928106723527
   6    1.3095411001687e-06
   7    4.5664110737514e-13
   8       1.8276677783089
   9    -2.2696252844923e-06
  10     -0.15699104242551
  11      -1.0249084514901
  12      0.15698880420037
  13       1.0249094077748
 Sym= A
 Ene=              12
 Spin= Alpha
 Occup=    0.00000
   1    -0.0017139984229962
   2     0.015907534699941
   3    -0.011984413245311
   4    -1.2097296160221e-12
   5     -0.11412361295529
   6     0.013712237538963
   7    1.4637993376847e-12
   8     -0.10804319837432
   9     -0.02376529406441
  10       0.8471312976519
  11       -1.154004022379
  12     -0.87056779123153
  13       1.1640173110815
