[Molden Format]
made by pyscf v[2.11.0]
[Atoms] (AU)
O   1   8     0.00000000000000     0.00000000000000     0.22166487441148
H   2   1     0.00000000000000     1.43090062152066    -0.88665949764593
H   3   1     0.00000000000000    -1.43090062152066    -0.88665949764593
[GTO]
1 0
 s    6 1.00
             5484.6717   0.001831099805527
             825.23495   0.013950098518422
             188.04696    0.06844509273075
               52.9645    0.23271427528445
              16.89757    0.47019295006289
             5.7996353    0.35852086192309
 s    3 1.00
             15.539616   -0.11077750382508
             3.5999336   -0.14802630511126
             1.0137618     1.1307670390447
 s    1 1.00
             0.2700058                   1
 p    3 1.00
             15.539616   0.070874299543311
             3.5999336    0.33975279781076
             1.0137618    0.72715859531445
 p    1 1.00
             0.2700058                   1

2 0
 s    3 1.00
             18.731137    0.03349459952309
             2.8253937    0.23472694665786
             0.6401217    0.81375731841339
 s    1 1.00
             0.1612778                   1

3 0
 s    3 1.00
             18.731137    0.03349459952309
             2.8253937    0.23472694665786
             0.6401217    0.81375731841339
 s    1 1.00
             0.1612778                   1

[5d]
[7f]
[9g]

[MO]
 Sym= A
 Ene=               0
 Spin= Alpha
 Occup=    1.00000
   1    -0.082410966060805
   2      0.20465079753313
   3      0.27490937980569
   4    2.0261329153314e-16
   5    -1.0462817566077e-13
   6      0.61197446936962
   7    1.2295534968425e-16
   8    -4.5677347966369e-14
   9      0.35474088445097
  10     -0.13602817398309
  11    -0.047689640521461
  12     -0.13602817398299
  13    -0.047689640521439
 Sym= A
 Ene=               1
 Spin= Alpha
 Occup=    1.00000
   1    -7.3113940197751e-14
   2    1.5330673645398e-13
   3    1.5778651194772e-13
   4    1.008525684132e-16
   5      0.57436908081101
   6    7.5332888334582e-14
   7    -2.9692974130589e-16
   8      0.24865651500292
   9    4.845842923853e-14
  10      0.26427854580241
  11     0.062783760893852
  12     -0.26427854580239
  13     -0.06278376089388
 Sym= A
 Ene=               2
 Spin= Alpha
 Occup=    1.00000
   1     -0.20260315580788
   2      0.49524921002012
   3      0.45602976538718
   4    2.4361033653247e-17
   5    -1.3511587747082e-13
   6     -0.15277345947217
   7    1.2559221049356e-17
   8    -5.8826103635494e-14
   9    -0.067047091480811
  10      0.14757242823213
  11    -0.023315201605285
  12      0.14757242823225
  13    -0.023315201605257
 Sym= A
 Ene=               3
 Spin= Alpha
 Occup=    1.00000
   1      0.99764857483159
   2     0.021312966170771
   3     -0.01825263957947
   4    -1.3374703522887e-18
   5    6.1449299670866e-15
   6    -0.00029611488625544
   7    2.9036801824947e-19
   8    2.6557375771548e-15
   9    0.0035756037294522
  10    -0.0016042420653119
  11    0.0032617172197864
  12    -0.0016042420653176
  13    0.0032617172197851
 Sym= A
 Ene=               4
 Spin= Alpha
 Occup=    1.00000
   1    -0.094628161619125
   2      0.26495053012668
   3      0.91916559862632
   4    -7.6766438210084e-14
   5    -2.0806186352584e-14
   6     -0.34515632626875
   7    -5.2285709267791e-14
   8    -3.682607238247e-14
   9      -0.3237122828147
  10     -0.19956453079466
  11     -0.81917941650117
  12     -0.19956453079467
  13      -0.8191794165013
 Sym= A
 Ene=               5
 Spin= Alpha
 Occup=    0.00000
   1    -6.054231382181e-15
   2    -1.3814932132307e-13
   3    2.122542084752e-13
   4    6.445600055251e-12
   5      0.53144308540362
   6    -3.6814953003636e-13
   7    4.0750914215392e-12
   8      0.69606383411605
   9    1.9214965086817e-13
  10     -0.51587916800781
  11     -0.78278101079971
  12      0.51587916800707
  13      0.78278101080013
 Sym= A
 Ene=               6
 Spin= Alpha
 Occup=    0.00000
   1     0.023609631381614
   2     -0.26053521676682
   3      0.58674672303852
   4    1.4427997775665e-12
   5    1.1477601432105e-13
   6      0.74377651026486
   7    1.4086870768901e-12
   8    6.0169285485599e-13
   9     -0.63618547759956
  10      0.64792965280884
  11     -0.74992572562862
  12      0.64792965280944
  13      -0.7499257256277
 Sym= A
 Ene=               7
 Spin= Alpha
 Occup=    0.00000
   1     0.058362275163082
   2      -1.6980916913243
   3       2.7763054784481
   4    -2.4632383710719e-12
   5    -6.5518779286854e-13
   6    0.0033206576463788
   7    -4.5232854193753e-13
   8    1.4874111637335e-12
   9     -0.60400134222331
  10     -0.37829965720946
  11     -0.65288898453996
  12     -0.37829965720573
  13      -0.6528889845441
 Sym= A
 Ene=               8
 Spin= Alpha
 Occup=    0.00000
   1    -0.0058972647318747
   2     0.012277865383334
   3     0.040184160736744
   4      0.26109747171779
   5    0.00048433960789353
   6     0.050925741147067
   7      0.19657869526781
   8      0.19843208666053
   9     -0.11624279494389
  10      -0.8325079227791
  11       1.0363805973696
  12      0.68778963699786
  13       -1.020128429394
 Sym= A
 Ene=               9
 Spin= Alpha
 Occup=    0.00000
   1    -5.0578152476742e-14
   2    1.3988815969024e-12
   3    -2.3197712192652e-12
   4     -0.95151941439761
   5    2.2695449935211e-13
   6    -1.3687624857079e-13
   7       1.0449539019896
   8    2.5792002108363e-13
   9    5.9657818674471e-13
  10    1.9998983672461e-13
  11    -2.7385416494729e-14
  12    1.6440767990048e-13
  13    1.3465045209788e-12
 Sym= A
 Ene=              10
 Spin= Alpha
 Occup=    0.00000
   1      0.06233391832683
   2     -0.12977668338021
   3     -0.42474542140018
   4      0.14502422276794
   5    1.1986313435579e-06
   6     -0.53828361686655
   7      0.10918785351049
   8    0.00049107506159891
   9        1.228682993853
  10      0.76295285750158
  11    -0.083347773540577
  12      0.76671525416093
  13    -0.088437173738654
 Sym= A
 Ene=              11
 Spin= Alpha
 Occup=    0.00000
   1    -4.1048428511002e-14
   2    1.0996729101486e-12
   3    -1.8079306469824e-12
   4    5.0592862754775e-13
   5     -0.91579698118618
   6    -1.0791635178495e-13
   7    3.6627255451461e-13
   8       1.7599240570376
   9    4.5565165276592e-13
  10    -0.045158767872514
  11       -1.055063743792
  12     0.045158767872774
  13        1.055063743793
 Sym= A
 Ene=              12
 Spin= Alpha
 Occup=    0.00000
   1    -0.012835279958468
   2     0.026722530969921
   3     0.087460030456092
   4      0.58433997311321
   5    -0.00021671233567051
   6      0.11083886758533
   7      0.43994600465241
   8    -0.088786214029825
   9     -0.25300014229534
  10      0.18263181292903
  11     -0.44239470089848
  12     -0.49760829739025
  13      0.47776722279529
