[Molden Format]
made by pyscf v[2.11.0]
[Atoms] (AU)
O   1   8     0.00000000000000     0.00000000000000     0.22166487441148
H   2   1     0.00000000000000     1.43090062152066    -0.88665949764593
H   3   1     0.00000000000000    -1.43090062152066    -0.88665949764593
[GTO]
1 0
 s    6 1.00
             5484.6717   0.001831099805527
             825.23495   0.013950098518422
             188.04696    0.06844509273075
               52.9645    0.23271427528445
              16.89757    0.47019295006289
             5.7996353    0.35852086192309
 s    3 1.00
             15.539616   -0.11077750382508
             3.5999336   -0.14802630511126
             1.0137618     1.1307670390447
 s    1 1.00
             0.2700058                   1
 p    3 1.00
             15.539616   0.070874299543311
             3.5999336    0.33975279781076
             1.0137618    0.72715859531445
 p    1 1.00
             0.2700058                   1

2 0
 s    3 1.00
             18.731137    0.03349459952309
             2.8253937    0.23472694665786
             0.6401217    0.81375731841339
 s    1 1.00
             0.1612778                   1

3 0
 s    3 1.00
             18.731137    0.03349459952309
             2.8253937    0.23472694665786
             0.6401217    0.81375731841339
 s    1 1.00
             0.1612778                   1

[5d]
[7f]
[9g]

[MO]
 Sym= A
 Ene=               0
 Spin= Alpha
 Occup=    1.00000
   1    -0.082959283194567
   2        0.205248410067
   3      0.27547103416943
   4    2.0264325601109e-16
   5    1.0541419989291e-13
   6      0.61178769033376
   7    1.2297048728105e-16
   8    4.5254033020101e-14
   9      0.35465772665086
  10     -0.13584754240768
  11    -0.047719032388676
  12     -0.13584754240777
  13      -0.0477190323887
 Sym= A
 Ene=               1
 Spin= Alpha
 Occup=    1.00000
   1      0.17378552448402
   2      0.46894012168278
   3      0.41795380710697
   4    2.2002358206461e-17
   5    4.3898272383726e-12
   6     -0.14306993424796
   7    1.1680228212674e-17
   8    1.9001388144094e-12
   9    -0.061530751469088
  10      0.13704510845085
  11    -0.020487985763636
  12      0.13704510844681
  13    -0.020487985764596
 Sym= A
 Ene=               2
 Spin= Alpha
 Occup=    1.00000
   1     -0.09492398544384
   2     0.015135003667945
   3      0.01727023131575
   4    1.0134156139766e-16
   5      0.57179118480663
   6    -0.0052686828337856
   7    -2.9519926211755e-16
   8      0.24754048933596
   9    -0.0026448766567171
  10      0.26831718153322
  11     0.061416005469284
  12     -0.25786762844978
  13     -0.06358794139161
 Sym= A
 Ene=               3
 Spin= Alpha
 Occup=    1.00000
   1      0.99852294452006
   2     -0.15920790052186
   3      -0.1816687547284
   4    -3.608449667129e-19
   5     0.054356986387363
   6     0.055422248374764
   7    -3.2285210343554e-17
   8     0.023532288301553
   9     0.027821946321067
  10    -0.029949668130016
  11     0.017365210323919
  12    -0.079971111820436
  13    0.0054817850133628
 Sym= A
 Ene=               4
 Spin= Alpha
 Occup=    1.00000
   1    -2.3599028757066e-15
   2    -2.354567092227e-15
   3    4.6242737001022e-14
   4      0.68970270591611
   5    -1.5165446783492e-13
   6    -1.7210473156833e-15
   7      0.45656922474971
   8    -9.6472985546184e-14
   9    -2.1238748775065e-14
  10    5.8999708449649e-14
  11    1.9789895314291e-13
  12    -6.30837960549e-14
  13    -2.673235568243e-13
 Sym= A
 Ene=               5
 Spin= Alpha
 Occup=    0.00000
   1    1.4933311617148e-13
   2    -1.3237969305145e-12
   3    5.7202638288403e-13
   4     -0.92755403752686
   5    9.7858876036976e-13
   6    -1.1822237609341e-12
   7       1.0618808116224
   8    6.3346089698812e-12
   9    1.8789387027582e-12
  10    -6.2738218474392e-13
  11    -7.9079442060959e-12
  12    1.2354423125594e-12
  13    8.6888464437662e-12
 Sym= A
 Ene=               6
 Spin= Alpha
 Occup=    0.00000
   1     0.064455332646509
   2     -0.23910811181591
   3     -0.55345545736517
   4    4.5333820881383e-12
   5      0.25921580892969
   6     -0.43163175910615
   7    -4.9787052364566e-12
   8      0.41802923160399
   9      0.91550598708691
  10     0.023924411715619
  11     -0.21464882779197
  12      0.15793016351914
  13       1.3911103174473
 Sym= A
 Ene=               7
 Spin= Alpha
 Occup=    0.00000
   1    -0.034910770138265
   2      0.15310586698393
   3      0.16913923158145
   4    2.1893185799112e-12
   5     -0.77266063480119
   6     0.013684484851948
   7    -2.4976255188346e-12
   8       1.4877247286731
   9     -0.26250729113575
  10     0.093974388196937
  11      -1.5444685149452
  12     -0.42381191604838
  13       1.2570765686371
 Sym= A
 Ene=               8
 Spin= Alpha
 Occup=    0.00000
   1     0.037364605627974
   2     -0.17225892923665
   3      0.13262255892261
   4    1.8882873937524e-12
   5      0.26648223892848
   6       0.6736542322626
   7    -2.0183100785324e-12
   8      0.26320864727856
   9     -0.38470148326334
  10      0.50616927406681
  11     -0.91924428516851
  12      0.79554012187434
  13     0.022903211378637
 Sym= A
 Ene=               9
 Spin= Alpha
 Occup=    0.00000
   1    -0.066355117117989
   2      0.12726523790242
   3      0.78779143798944
   4    1.8356816055893e-12
   5      0.40962307283071
   6     -0.43659495828401
   7    -1.9906256178573e-12
   8     0.082406870759986
   9    -0.039116104107004
  10     -0.44443198761549
  11     -0.75838787845358
  12      0.23048508988955
  13     -0.57324912042385
 Sym= A
 Ene=              10
 Spin= Alpha
 Occup=    0.00000
   1     0.054860821057442
   2      -0.3965961096784
   3      0.32319682247104
   4    -8.4174698149754e-13
   5     -0.34694088027057
   6     -0.34026176423131
   7    8.3196525522177e-13
   8    -0.091600564971924
   9      0.77187389363387
  10      0.99344291078775
  11     -0.33397409390416
  12      0.43737722477034
  13     -0.57626174597839
 Sym= A
 Ene=              11
 Spin= Alpha
 Occup=    0.00000
   1     0.023323901543074
   2     -0.10182477420158
   3     -0.11557778048265
   4    5.5162295867115e-14
   5     -0.31263276584314
   6    -0.013482645021467
   7    -1.0040737025789e-13
   8       1.0753695089367
   9      0.17998267898379
  10     -0.71551019214959
  11      0.47679577272231
  12      0.93131310432054
  13     -0.27789130127168
 Sym= A
 Ene=              12
 Spin= Alpha
 Occup=    0.00000
   1     0.047718101120281
   2      -1.6568521865119
   3       2.8276743793812
   4    4.309616100944e-13
   5    -0.0027905217917573
   6      0.17348509637597
   7    -4.9739052645758e-13
   8     0.011951497467875
   9     -0.88133587275122
  10     -0.46629029631369
  11     -0.68692471856231
  12     -0.47982507990393
  13     -0.63913074961488
