[Molden Format]
made by pyscf v[2.11.0]
[Atoms] (AU)
O   1   8     0.00000000000000     0.00000000000000     0.22166487441148
H   2   1     0.00000000000000     1.43090062152066    -0.88665949764593
H   3   1     0.00000000000000    -1.43090062152066    -0.88665949764593
[GTO]
1 0
 s    6 1.00
             5484.6717   0.001831099805527
             825.23495   0.013950098518422
             188.04696    0.06844509273075
               52.9645    0.23271427528445
              16.89757    0.47019295006289
             5.7996353    0.35852086192309
 s    3 1.00
             15.539616   -0.11077750382508
             3.5999336   -0.14802630511126
             1.0137618     1.1307670390447
 s    1 1.00
             0.2700058                   1
 p    3 1.00
             15.539616   0.070874299543311
             3.5999336    0.33975279781076
             1.0137618    0.72715859531445
 p    1 1.00
             0.2700058                   1

2 0
 s    3 1.00
             18.731137    0.03349459952309
             2.8253937    0.23472694665786
             0.6401217    0.81375731841339
 s    1 1.00
             0.1612778                   1

3 0
 s    3 1.00
             18.731137    0.03349459952309
             2.8253937    0.23472694665786
             0.6401217    0.81375731841339
 s    1 1.00
             0.1612778                   1

[5d]
[7f]
[9g]

[MO]
 Sym= A
 Ene=               0
 Spin= Alpha
 Occup=    1.00000
   1    -0.069059603892399
   2      0.17839344502662
   3      0.23324066548911
   4    -1.3775921640132e-13
   5    -4.6889563762636e-14
   6      0.63396430515662
   7    -7.6354316371097e-14
   8    -2.0300841121521e-14
   9      0.34839857291887
  10     -0.14148448503169
  11     -0.04265510765239
  12     -0.14148448503165
  13    -0.042655107652383
 Sym= A
 Ene=               1
 Spin= Alpha
 Occup=    1.00000
   1    -1.9863801620829e-14
   2    3.3323332081978e-14
   3     3.57984937778e-14
   4    2.0329547831142e-13
   5      0.59465199741305
   6    4.5457178302629e-14
   7    1.1260191815292e-13
   8      0.25436616073005
   9    2.5417108019693e-14
  10      0.25029369886515
  11     0.050747671287569
  12     -0.25029369886516
  13    -0.050747671287578
 Sym= A
 Ene=               2
 Spin= Alpha
 Occup=    1.00000
   1     -0.20933590457453
   2      0.52752695787158
   3      0.47542539196631
   4    -5.1145724247946e-16
   5    -2.1839307261486e-14
   6      -0.1226949360868
   7    -2.8727689311271e-16
   8    -9.7823624844072e-15
   9    -0.056984673891676
  10      0.12075395562955
  11    -0.032416432884137
  12      0.12075395562957
  13    -0.032416432884135
 Sym= A
 Ene=               3
 Spin= Alpha
 Occup=    1.00000
   1    -3.4233612873139e-14
   2    3.3537222088481e-14
   3    4.4311264870475e-14
   4      0.73243034871796
   5    -1.6475776122655e-13
   6    1.1928524640145e-13
   7      0.40628358319091
   8    -7.0803357852964e-14
   9    6.5552240984107e-14
  10    -9.5828976657675e-14
  11    -2.2072986826156e-14
  12    4.2958152842826e-14
  13    6.2016562810454e-15
 Sym= A
 Ene=               4
 Spin= Alpha
 Occup=    1.00000
   1      0.99794467522922
   2     0.021220745309094
   3    -0.020131527161858
   4    1.556627232213e-14
   5    4.0081778463652e-15
   6    -0.00031632965756345
   7    8.6357630040991e-15
   8    1.7123974817522e-15
   9    0.0036943313510524
  10    -0.0016766096001722
  11    0.0035985127512417
  12    -0.0016766096001756
  13     0.003598512751241
 Sym= A
 Ene=               5
 Spin= Alpha
 Occup=    0.00000
   1    -0.091713432715684
   2      0.28162736762592
   3      0.85506471219536
   4    8.9228956172038e-15
   5    1.0719615226937e-13
   6     -0.37177425162718
   7    -1.0584645561997e-14
   8    4.5897146017881e-14
   9      -0.2813355302217
  10     -0.22641602522483
  11     -0.77857847768484
  12     -0.22641602522471
  13      -0.7785784776846
 Sym= A
 Ene=               6
 Spin= Alpha
 Occup=    0.00000
   1    5.1588392956941e-15
   2    6.7331988486169e-15
   3    -1.4751363257186e-13
   4    3.4195997314194e-14
   5      0.58822609486803
   6    9.7505031929374e-14
   7    -4.1328502066072e-14
   8      0.52361722473427
   9    -7.7585866824187e-14
  10     -0.45411422733917
  11     -0.77576143356984
  12      0.45411422733901
  13      0.77576143357019
 Sym= A
 Ene=               7
 Spin= Alpha
 Occup=    0.00000
   1     0.033206136392603
   2     -0.63074466193036
   3       1.2303518334099
   4    -7.7244504736327e-14
   5    -2.7605789172683e-13
   6       0.6777936374227
   7    9.3492395828101e-14
   8    6.2813647166056e-13
   9     -0.71862186885935
  10      0.57068388439598
  11     -0.91879003609402
  12      0.57068388439591
  13     -0.91879003609296
 Sym= A
 Ene=               8
 Spin= Alpha
 Occup=    0.00000
   1    -1.0277309892786e-13
   2    1.1626132952309e-12
   3    -1.1591219462557e-12
   4     -0.89419913853531
   5    2.2247772424678e-13
   6    6.8942350351214e-13
   7       1.0821182768579
   8    -2.8404836564244e-13
   9    -1.1234573101878e-12
  10    -8.701557604373e-13
  11    9.7640488462943e-13
  12    -2.9947134286001e-13
  13    -1.4940344313561e-13
 Sym= A
 Ene=               9
 Spin= Alpha
 Occup=    0.00000
   1      0.02427571742173
   2       -1.435434848126
   3       2.5638062800586
   4    -1.3774512048425e-13
   5    -7.9436266350808e-12
   6     0.067334546247396
   7    1.6689662203486e-13
   8    1.8057365454406e-11
   9     -0.89620720654847
  10     -0.76597509525727
  11     -0.41185985916046
  12     -0.76597509524822
  13     -0.41185985914883
 Sym= A
 Ene=              10
 Spin= Alpha
 Occup=    0.00000
   1     0.074530580442124
   2     -0.69171463536251
   3      0.52112374353021
   4    -1.149569898489e-12
   5    -0.002626474855182
   6     -0.59625552120362
   7    1.3909950164484e-12
   8     -0.00248292325263
   9       1.0333971943443
  10      0.52930665934399
  11     -0.24436949034771
  12      0.48979315263623
  13     -0.19104293992189
 Sym= A
 Ene=              11
 Spin= Alpha
 Occup=    0.00000
   1    -1.0488451373408e-07
   2    9.7343980676126e-07
   3    -7.3338434889728e-07
   4    -1.6718875436502e-13
   5     -0.85928126042097
   6    8.3908854538635e-07
   7    2.021969811554e-13
   8       1.8276675954162
   9    -1.4542546259992e-06
  10     -0.15698918653692
  11      -1.0249105852046
  12      0.15698775240802
  13       1.0249111979538
 Sym= A
 Ene=              12
 Spin= Alpha
 Occup=    0.00000
   1    0.0017145011581472
   2    -0.015912200550263
   3     0.011987928389975
   4    2.8340388617886e-13
   5       0.1141221570223
   6    -0.013716259495793
   7    -3.4278027707409e-13
   8      0.10804624068097
   9     0.023772264704399
  10     -0.84712799006324
  11       1.1540006586103
  12      0.87057135784649
  13      -1.1640168843177
